[Molden Format]
[Title]
                                                                                
[Atoms] AU
 c     1    6 -.42935351138507E+01 0.38897734861467E+00 0.66044823346759E+00
 c     2    6 -.23061632025653E+01 0.18446954157664E+01 -.80544954437707E+00
 o     3    8 0.21856817225849E+00 0.10174250249528E+01 -.15715244470030E+00
 c     4    6 0.11578375708647E+01 -.96464355029735E+00 -.14522161230930E+01
 o     5    8 0.31528587346900E-01 -.20501393282456E+01 -.31177896883192E+01
 c     6    6 0.37371827906314E+01 -.16997907351014E+01 -.64056012523114E+00
 c     7    6 0.50531244760598E+01 -.58814240352844E+00 0.11863768685802E+01
 h     8    1 -.39721155878257E+01 0.54913657074241E+00 0.26911832140187E+01
 h     9    1 -.42800675694916E+01 -.16033979307843E+01 0.13799307979101E+00
 h    10    1 -.61653858066668E+01 0.11533510677906E+01 0.24245804232433E+00
 h    11    1 -.25718775655210E+01 0.16373774043893E+01 -.28366420559014E+01
 h    12    1 -.23276090646219E+01 0.38443643621319E+01 -.31443838158726E+00
 h    13    1 0.44903173126282E+01 -.32838930090611E+01 -.16951343920489E+01
 h    14    1 0.69304608941474E+01 -.12389542786168E+01 0.16758545965614E+01
 h    15    1 0.42977341066063E+01 0.99363404124589E+00 0.22389201560091E+01
[GTO]
    1 0
 s    6 1.00
 0.13575349682000E+05 0.60645503603591E-03
 0.20352333680000E+04 0.46979088884982E-02
 0.46322562359000E+03 0.24332477647552E-01
 0.13120019598000E+03 0.97399968307759E-01
 0.42853015891000E+02 0.30195584253780E+00
 0.15584185766000E+02 0.66233609137875E+00
 s    2 1.00
 0.62067138508000E+01 0.65595308539952E+00
 0.25764896527000E+01 0.37585633285142E+00
 s    1 1.00
 0.57696339419000E+00 0.10000000000000E+01
 s    1 1.00
 0.22972831358000E+00 0.10000000000000E+01
 s    1 1.00
 0.95164440028000E-01 0.10000000000000E+01
 p    4 1.00
 0.34697232244000E+02 0.11327220003114E-01
 0.79582622826000E+01 0.76169659202087E-01
 0.23780826883000E+01 0.30192252202676E+00
 0.81433208183000E+00 0.72785027349547E+00
 p    1 1.00
 0.28887547253000E+00 0.10000000000000E+01
 p    1 1.00
 0.10056823671000E+00 0.10000000000000E+01
 d    1 1.00
 0.10970000000000E+01 0.10000000000000E+01
 d    1 1.00
 0.31800000000000E+00 0.10000000000000E+01
 f    1 1.00
 0.76100000000000E+00 0.10000000000000E+01
 
    2 0
 s    6 1.00
 0.13575349682000E+05 0.60645503603591E-03
 0.20352333680000E+04 0.46979088884982E-02
 0.46322562359000E+03 0.24332477647552E-01
 0.13120019598000E+03 0.97399968307759E-01
 0.42853015891000E+02 0.30195584253780E+00
 0.15584185766000E+02 0.66233609137875E+00
 s    2 1.00
 0.62067138508000E+01 0.65595308539952E+00
 0.25764896527000E+01 0.37585633285142E+00
 s    1 1.00
 0.57696339419000E+00 0.10000000000000E+01
 s    1 1.00
 0.22972831358000E+00 0.10000000000000E+01
 s    1 1.00
 0.95164440028000E-01 0.10000000000000E+01
 p    4 1.00
 0.34697232244000E+02 0.11327220003114E-01
 0.79582622826000E+01 0.76169659202087E-01
 0.23780826883000E+01 0.30192252202676E+00
 0.81433208183000E+00 0.72785027349547E+00
 p    1 1.00
 0.28887547253000E+00 0.10000000000000E+01
 p    1 1.00
 0.10056823671000E+00 0.10000000000000E+01
 d    1 1.00
 0.10970000000000E+01 0.10000000000000E+01
 d    1 1.00
 0.31800000000000E+00 0.10000000000000E+01
 f    1 1.00
 0.76100000000000E+00 0.10000000000000E+01
 
    3 0
 s    6 1.00
 0.27032382631000E+05 0.57227335211155E-03
 0.40523871392000E+04 0.44353233492995E-02
 0.92232722710000E+03 0.23020107706038E-01
 0.26124070989000E+03 0.92822490667928E-01
 0.85354641351000E+02 0.29378500009671E+00
 0.31035035245000E+02 0.67401604501641E+00
 s    2 1.00
 0.12260860728000E+02 0.63839937025506E+00
 0.49987076005000E+01 0.39534587125718E+00
 s    1 1.00
 0.11703108158000E+01 0.10000000000000E+01
 s    1 1.00
 0.46474740994000E+00 0.10000000000000E+01
 s    1 1.00
 0.18504536357000E+00 0.10000000000000E+01
 p    4 1.00
 0.63274954801000E+02 0.12018332222616E-01
 0.14627049379000E+02 0.83005421790056E-01
 0.44501223456000E+01 0.31991743925964E+00
 0.15275799647000E+01 0.70715542916104E+00
 p    1 1.00
 0.52935117943000E+00 0.10000000000000E+01
 p    1 1.00
 0.17478421270000E+00 0.10000000000000E+01
 d    1 1.00
 0.23140000000000E+01 0.10000000000000E+01
 d    1 1.00
 0.64500000000000E+00 0.10000000000000E+01
 f    1 1.00
 0.14280000000000E+01 0.10000000000000E+01
 
    4 0
 s    6 1.00
 0.13575349682000E+05 0.60645503603591E-03
 0.20352333680000E+04 0.46979088884982E-02
 0.46322562359000E+03 0.24332477647552E-01
 0.13120019598000E+03 0.97399968307759E-01
 0.42853015891000E+02 0.30195584253780E+00
 0.15584185766000E+02 0.66233609137875E+00
 s    2 1.00
 0.62067138508000E+01 0.65595308539952E+00
 0.25764896527000E+01 0.37585633285142E+00
 s    1 1.00
 0.57696339419000E+00 0.10000000000000E+01
 s    1 1.00
 0.22972831358000E+00 0.10000000000000E+01
 s    1 1.00
 0.95164440028000E-01 0.10000000000000E+01
 p    4 1.00
 0.34697232244000E+02 0.11327220003114E-01
 0.79582622826000E+01 0.76169659202087E-01
 0.23780826883000E+01 0.30192252202676E+00
 0.81433208183000E+00 0.72785027349547E+00
 p    1 1.00
 0.28887547253000E+00 0.10000000000000E+01
 p    1 1.00
 0.10056823671000E+00 0.10000000000000E+01
 d    1 1.00
 0.10970000000000E+01 0.10000000000000E+01
 d    1 1.00
 0.31800000000000E+00 0.10000000000000E+01
 f    1 1.00
 0.76100000000000E+00 0.10000000000000E+01
 
    5 0
 s    6 1.00
 0.27032382631000E+05 0.57227335211155E-03
 0.40523871392000E+04 0.44353233492995E-02
 0.92232722710000E+03 0.23020107706038E-01
 0.26124070989000E+03 0.92822490667928E-01
 0.85354641351000E+02 0.29378500009671E+00
 0.31035035245000E+02 0.67401604501641E+00
 s    2 1.00
 0.12260860728000E+02 0.63839937025506E+00
 0.49987076005000E+01 0.39534587125718E+00
 s    1 1.00
 0.11703108158000E+01 0.10000000000000E+01
 s    1 1.00
 0.46474740994000E+00 0.10000000000000E+01
 s    1 1.00
 0.18504536357000E+00 0.10000000000000E+01
 p    4 1.00
 0.63274954801000E+02 0.12018332222616E-01
 0.14627049379000E+02 0.83005421790056E-01
 0.44501223456000E+01 0.31991743925964E+00
 0.15275799647000E+01 0.70715542916104E+00
 p    1 1.00
 0.52935117943000E+00 0.10000000000000E+01
 p    1 1.00
 0.17478421270000E+00 0.10000000000000E+01
 d    1 1.00
 0.23140000000000E+01 0.10000000000000E+01
 d    1 1.00
 0.64500000000000E+00 0.10000000000000E+01
 f    1 1.00
 0.14280000000000E+01 0.10000000000000E+01
 
    6 0
 s    6 1.00
 0.13575349682000E+05 0.60645503603591E-03
 0.20352333680000E+04 0.46979088884982E-02
 0.46322562359000E+03 0.24332477647552E-01
 0.13120019598000E+03 0.97399968307759E-01
 0.42853015891000E+02 0.30195584253780E+00
 0.15584185766000E+02 0.66233609137875E+00
 s    2 1.00
 0.62067138508000E+01 0.65595308539952E+00
 0.25764896527000E+01 0.37585633285142E+00
 s    1 1.00
 0.57696339419000E+00 0.10000000000000E+01
 s    1 1.00
 0.22972831358000E+00 0.10000000000000E+01
 s    1 1.00
 0.95164440028000E-01 0.10000000000000E+01
 p    4 1.00
 0.34697232244000E+02 0.11327220003114E-01
 0.79582622826000E+01 0.76169659202087E-01
 0.23780826883000E+01 0.30192252202676E+00
 0.81433208183000E+00 0.72785027349547E+00
 p    1 1.00
 0.28887547253000E+00 0.10000000000000E+01
 p    1 1.00
 0.10056823671000E+00 0.10000000000000E+01
 d    1 1.00
 0.10970000000000E+01 0.10000000000000E+01
 d    1 1.00
 0.31800000000000E+00 0.10000000000000E+01
 f    1 1.00
 0.76100000000000E+00 0.10000000000000E+01
 
    7 0
 s    6 1.00
 0.13575349682000E+05 0.60645503603591E-03
 0.20352333680000E+04 0.46979088884982E-02
 0.46322562359000E+03 0.24332477647552E-01
 0.13120019598000E+03 0.97399968307759E-01
 0.42853015891000E+02 0.30195584253780E+00
 0.15584185766000E+02 0.66233609137875E+00
 s    2 1.00
 0.62067138508000E+01 0.65595308539952E+00
 0.25764896527000E+01 0.37585633285142E+00
 s    1 1.00
 0.57696339419000E+00 0.10000000000000E+01
 s    1 1.00
 0.22972831358000E+00 0.10000000000000E+01
 s    1 1.00
 0.95164440028000E-01 0.10000000000000E+01
 p    4 1.00
 0.34697232244000E+02 0.11327220003114E-01
 0.79582622826000E+01 0.76169659202087E-01
 0.23780826883000E+01 0.30192252202676E+00
 0.81433208183000E+00 0.72785027349547E+00
 p    1 1.00
 0.28887547253000E+00 0.10000000000000E+01
 p    1 1.00
 0.10056823671000E+00 0.10000000000000E+01
 d    1 1.00
 0.10970000000000E+01 0.10000000000000E+01
 d    1 1.00
 0.31800000000000E+00 0.10000000000000E+01
 f    1 1.00
 0.76100000000000E+00 0.10000000000000E+01
 
    8 0
 s    3 1.00
 0.34061341000000E+02 0.25439307208879E-01
 0.51235746000000E+01 0.19008594890375E+00
 0.11646626000000E+01 0.85244113011042E+00
 s    1 1.00
 0.32723041000000E+00 0.10000000000000E+01
 s    1 1.00
 0.10307241000000E+00 0.10000000000000E+01
 p    1 1.00
 0.80000000000000E+00 0.10000000000000E+01
 
    9 0
 s    3 1.00
 0.34061341000000E+02 0.25439307208879E-01
 0.51235746000000E+01 0.19008594890375E+00
 0.11646626000000E+01 0.85244113011042E+00
 s    1 1.00
 0.32723041000000E+00 0.10000000000000E+01
 s    1 1.00
 0.10307241000000E+00 0.10000000000000E+01
 p    1 1.00
 0.80000000000000E+00 0.10000000000000E+01
 
   10 0
 s    3 1.00
 0.34061341000000E+02 0.25439307208879E-01
 0.51235746000000E+01 0.19008594890375E+00
 0.11646626000000E+01 0.85244113011042E+00
 s    1 1.00
 0.32723041000000E+00 0.10000000000000E+01
 s    1 1.00
 0.10307241000000E+00 0.10000000000000E+01
 p    1 1.00
 0.80000000000000E+00 0.10000000000000E+01
 
   11 0
 s    3 1.00
 0.34061341000000E+02 0.25439307208879E-01
 0.51235746000000E+01 0.19008594890375E+00
 0.11646626000000E+01 0.85244113011042E+00
 s    1 1.00
 0.32723041000000E+00 0.10000000000000E+01
 s    1 1.00
 0.10307241000000E+00 0.10000000000000E+01
 p    1 1.00
 0.80000000000000E+00 0.10000000000000E+01
 
   12 0
 s    3 1.00
 0.34061341000000E+02 0.25439307208879E-01
 0.51235746000000E+01 0.19008594890375E+00
 0.11646626000000E+01 0.85244113011042E+00
 s    1 1.00
 0.32723041000000E+00 0.10000000000000E+01
 s    1 1.00
 0.10307241000000E+00 0.10000000000000E+01
 p    1 1.00
 0.80000000000000E+00 0.10000000000000E+01
 
   13 0
 s    3 1.00
 0.34061341000000E+02 0.25439307208879E-01
 0.51235746000000E+01 0.19008594890375E+00
 0.11646626000000E+01 0.85244113011042E+00
 s    1 1.00
 0.32723041000000E+00 0.10000000000000E+01
 s    1 1.00
 0.10307241000000E+00 0.10000000000000E+01
 p    1 1.00
 0.80000000000000E+00 0.10000000000000E+01
 
   14 0
 s    3 1.00
 0.34061341000000E+02 0.25439307208879E-01
 0.51235746000000E+01 0.19008594890375E+00
 0.11646626000000E+01 0.85244113011042E+00
 s    1 1.00
 0.32723041000000E+00 0.10000000000000E+01
 s    1 1.00
 0.10307241000000E+00 0.10000000000000E+01
 p    1 1.00
 0.80000000000000E+00 0.10000000000000E+01
 
   15 0
 s    3 1.00
 0.34061341000000E+02 0.25439307208879E-01
 0.51235746000000E+01 0.19008594890375E+00
 0.11646626000000E+01 0.85244113011042E+00
 s    1 1.00
 0.32723041000000E+00 0.10000000000000E+01
 s    1 1.00
 0.10307241000000E+00 0.10000000000000E+01
 p    1 1.00
 0.80000000000000E+00 0.10000000000000E+01
 
[MO]
 Sym=     1a   
 Ene= -.19167580081207E+02
 Spin= Alpha
 Occup= 2.000000
     1 0.71280477195959E-05
     2 -.34780524576746E-04
     3 0.45064428945100E-03
     4 -.73306675839323E-03
     5 0.79633900691055E-02
     6 0.84435035632265E-04
     7 0.12409813450534E-04
     8 0.75075313400557E-05
     9 0.20004153634848E-03
    10 -.13485000066255E-03
    11 0.11392421453830E-03
    12 0.21102733548138E-02
    13 0.69505685593732E-03
    14 -.91737589270698E-03
    15 0.52941704980331E-04
    16 -.25247026469712E-04
    17 -.27694678510620E-04
    18 -.33478509546757E-04
    19 0.24362279794788E-04
    20 -.16101977037112E-04
    21 -.52158319260968E-03
    22 0.21115147139584E-03
    23 0.31043172121384E-03
    24 0.22370498529332E-03
    25 -.10455940102986E-03
    26 0.21132190853986E-03
    27 -.27156883613835E-04
    28 0.13814329207032E-04
    29 -.74356197543628E-05
    30 0.20028915107176E-04
    31 -.21921748584204E-04
    32 0.18303682393485E-04
    33 0.16405867583375E-04
    34 0.33878810819143E-05
    35 -.83277516581276E-05
    36 -.29147540830978E-05
    37 0.19570859245322E-04
    38 -.96705966916399E-04
    39 -.20497777896377E-02
    40 0.77686353712788E-02
    41 -.11202221866171E-01
    42 -.26243295814502E-03
    43 0.13085697796454E-03
    44 -.92491789200562E-04
    45 0.52781464723803E-02
    46 -.19620848402157E-02
    47 0.17835992601167E-02
    48 0.93461177494249E-03
    49 0.17222947242638E-02
    50 -.16714191273004E-02
    51 0.21825613485434E-03
    52 -.10101151441580E-03
    53 -.11724462043853E-03
    54 -.10917294503455E-03
    55 0.93393147314316E-04
    56 -.24777912345316E-04
    57 0.14024296543506E-02
    58 -.54179710904088E-03
    59 -.86063254530974E-03
    60 -.95799215460013E-03
    61 0.75912833765092E-03
    62 -.38837793104002E-03
    63 0.12445140411932E-03
    64 0.85379883124829E-04
    65 -.66413434639185E-04
    66 -.69084460646057E-04
    67 -.14695941111730E-03
    68 0.11203227844325E-03
    69 -.97884619057596E-04
    70 0.32410277570434E-04
    71 -.22929305759778E-04
    72 -.59748682546400E-04
    73 0.43511850590505E+00
    74 0.63934776725767E+00
    75 0.38052712864065E-01
    76 -.33480064563810E-01
    77 0.82895773312675E-02
    78 -.90885646185541E-03
    79 -.10235862119155E-02
    80 -.14011297882238E-02
    81 0.19910400665298E-02
    82 0.33401515101316E-02
    83 0.39523066960858E-02
    84 0.23312728452614E-03
    85 0.22511080423699E-04
    86 0.56129044625678E-03
    87 0.87541657218192E-04
    88 0.13585598948705E-04
    89 -.10112725616690E-03
    90 -.17981079054037E-03
    91 -.12719374810374E-04
    92 0.83328702098440E-04
    93 -.51045557208023E-03
    94 -.77521058357388E-04
    95 0.58797663043762E-03
    96 0.10519506343257E-02
    97 0.55839796011783E-04
    98 -.55197887924459E-03
    99 0.70582025518126E-04
   100 0.26672790090444E-04
   101 -.47559420873584E-04
   102 -.54721985934078E-04
   103 -.53583788875706E-04
   104 0.28768105034227E-04
   105 -.39973738294815E-04
   106 0.17798485800616E-04
   107 0.35039553792087E-04
   108 -.51969103654971E-04
   109 0.37804372363722E-04
   110 -.20634474808138E-03
   111 -.66286788558025E-03
   112 0.27914199284013E-02
   113 0.43965726912471E-03
   114 0.37489447542755E-04
   115 0.79303233408023E-05
   116 0.25015310614319E-04
   117 -.49510852123235E-02
   118 0.67352155638197E-02
   119 0.33903312888595E-02
   120 0.20369282812122E-02
   121 -.36510759929453E-02
   122 -.26190539507730E-02
   123 -.46811841210904E-04
   124 0.11113592973565E-03
   125 -.64324088524741E-04
   126 -.20164449650520E-03
   127 -.96976638701334E-04
   128 0.21102312213597E-03
   129 -.18116219080233E-02
   130 0.16372696758691E-02
   131 0.17435223215417E-03
   132 -.78445195809614E-03
   133 -.14921590500589E-02
   134 0.19729284733624E-02
   135 0.24958782441129E-04
   136 -.62698173851892E-04
   137 -.88256532362686E-04
   138 -.10315599425623E-03
   139 0.39526996331367E-04
   140 -.64525720395197E-05
   141 0.69670273751830E-04
   142 0.44591430947391E-04
   143 0.12486113553235E-03
   144 -.42902708070318E-04
   145 -.23591578737159E-04
   146 -.35744781654051E-04
   147 -.13879661425140E-03
   148 0.12011470205693E-02
   149 -.94599384353330E-03
   150 0.67067570069815E-04
   151 -.10547290583422E-04
   152 0.47454112692597E-04
   153 -.32768681948676E-03
   154 0.55920573623022E-03
   155 0.25450526735362E-03
   156 -.94197235907841E-03
   157 0.87460272990047E-03
   158 0.50062219962961E-03
   159 0.27884892553863E-04
   160 -.15802361799522E-04
   161 -.12082530754342E-04
   162 -.11562483097313E-04
   163 0.33992704234459E-04
   164 0.94953544953219E-05
   165 -.19231381037782E-03
   166 0.10932394705569E-03
   167 0.82989863322132E-04
   168 0.58075209356294E-04
   169 -.13713432285991E-03
   170 0.79012065235146E-04
   171 -.44587391212305E-05
   172 0.14778944826299E-05
   173 0.74834688972029E-05
   174 0.85364186307355E-05
   175 0.26051816453582E-06
   176 -.30671805319898E-05
   177 -.25543923693300E-05
   178 -.22433216805752E-05
   179 -.69729465650008E-05
   180 0.44547133387632E-05
   181 0.20974080543738E-04
   182 -.10341614231864E-03
   183 0.11935719536354E-02
   184 -.36510415073389E-02
   185 0.77181458598642E-03
   186 0.95921985978648E-05
   187 0.13341185214804E-03
   188 0.12684372899135E-03
   189 -.54974713763317E-02
   190 -.86269141691223E-03
   191 -.40076998023620E-02
   192 0.21324601563209E-02
   193 0.13870369385683E-02
   194 0.27228146357306E-02
   195 0.57251966385939E-05
   196 0.59934571221173E-05
   197 -.11718653760711E-04
   198 -.29445189148146E-04
   199 0.13638170683954E-04
   200 0.39418856357694E-04
   201 0.95283018867319E-03
   202 -.38247226844431E-03
   203 -.57035792022888E-03
   204 -.48017972583567E-03
   205 -.18015459757501E-03
   206 -.12484989740281E-02
   207 -.67295052187893E-05
   208 0.14512599950311E-04
   209 0.19989392164986E-04
   210 0.34633077783663E-04
   211 -.29605266837399E-04
   212 -.37368515787095E-04
   213 -.25604499109171E-04
   214 0.10134570825906E-04
   215 0.10549931961209E-04
   216 0.15946672935232E-05
   217 0.13171739851153E-04
   218 -.63221829444189E-04
   219 -.27691809681596E-04
   220 0.57113359921806E-02
   221 -.38582513129262E-02
   222 -.11453781885861E-04
   223 0.50248143671574E-05
   224 0.22553027389800E-05
   225 -.29984494342181E-02
   226 -.15761437315302E-02
   227 -.32919962355055E-02
   228 0.48162525643694E-03
   229 0.61722610697841E-03
   230 0.82880195594115E-03
   231 0.96592152857100E-05
   232 -.93288834448030E-05
   233 -.33033184090706E-06
   234 -.10076894383929E-05
   235 0.31278883402836E-04
   236 0.29290311710785E-04
   237 -.10392921489769E-03
   238 -.21653500950158E-03
   239 0.32046422439928E-03
   240 0.47558762792575E-03
   241 0.56980481454630E-03
   242 0.34169454994279E-03
   243 -.19503766382300E-05
   244 0.58849044656961E-05
   245 0.14379442662765E-04
   246 0.12042614473814E-04
   247 0.12005125473812E-04
   248 -.12022934866155E-04
   249 -.94259096269286E-05
   250 -.19900553329645E-04
   251 -.72691118973474E-05
   252 -.68875240355749E-05
   253 0.20758203746856E-04
   254 -.67431503506270E-03
   255 -.38249093873844E-03
   256 0.12114000661652E-03
   257 -.52287657164816E-04
   258 0.54805753876249E-04
   259 -.33994789516100E-04
   260 -.42574878618857E-03
   261 -.65219242833026E-03
   262 0.12736279326891E-03
   263 -.40295117047177E-04
   264 0.31289663773449E-04
   265 0.15083890129959E-03
   266 0.62912147999890E-03
   267 -.35075021961860E-03
   268 0.88165225436294E-04
   269 -.71264255377729E-04
   270 0.25312407287129E-04
   271 0.70478437422115E-05
   272 0.11116785400615E-02
   273 0.87676685449502E-03
   274 -.52167972675922E-04
   275 -.44978714638471E-04
   276 0.16846714468892E-04
   277 0.35672857082910E-04
   278 0.35997964651631E-03
   279 0.11998952971680E-02
   280 -.21234221584902E-03
   281 0.11268339919192E-03
   282 0.56391784048806E-04
   283 0.10464093781557E-03
   284 0.13953283876498E-02
   285 0.11098121469917E-03
   286 -.19617817094632E-03
   287 0.13161200312373E-03
   288 0.15399639808498E-04
   289 0.90798505229455E-04
   290 0.62954979065541E-03
   291 -.95843844674786E-04
   292 -.13985298254514E-03
   293 0.13218079443788E-04
   294 -.70236321389618E-04
   295 0.12197613091461E-03
   296 0.39287544387052E-04
   297 0.60949023656642E-04
   298 0.39131287105280E-04
   299 -.14230514310950E-04
   300 0.91839025930312E-05
 Sym=     2a   
 Ene= -.19109643833185E+02
 Spin= Alpha
 Occup= 2.000000
     1 -.32583938177657E-05
     2 0.16120743948908E-04
     3 -.14550186268791E-03
     4 0.23652398703426E-03
     5 0.67471283996148E-03
     6 -.27239487711288E-04
     7 0.29250906265574E-04
     8 0.46608497019706E-04
     9 0.29198359405985E-05
    10 -.40778957791398E-03
    11 -.12496716094901E-03
    12 0.23451607485406E-03
    13 0.58859834394544E-03
    14 -.23755949540410E-03
    15 0.47595074697474E-06
    16 0.13103628842478E-04
    17 -.13579579589452E-04
    18 0.11633070520400E-04
    19 0.16182942040848E-04
    20 0.20319925508557E-05
    21 -.63500336630171E-04
    22 0.41390820614189E-04
    23 0.22109516015982E-04
    24 -.86296500375983E-04
    25 -.57985698176297E-04
    26 0.69141027333003E-04
    27 0.29101184862629E-05
    28 -.26416200711166E-06
    29 0.28702847735438E-05
    30 -.51354596171676E-05
    31 -.16212009452311E-05
    32 -.78030686448110E-06
    33 0.12311259624500E-05
    34 0.19756114682158E-05
    35 -.30705842565749E-05
    36 0.56183839687576E-05
    37 0.48532792768889E-05
    38 -.23246325292684E-04
    39 0.10335381988130E-03
    40 0.14083331200292E-03
    41 -.40199521136453E-02
    42 0.11101298104329E-03
    43 -.53170538847587E-04
    44 -.21446448566935E-04
    45 -.54443143106851E-03
    46 -.88688153702686E-04
    47 -.39058642945507E-04
    48 -.15914420879779E-03
    49 0.80654875303553E-03
    50 0.12403901722304E-03
    51 0.13037666986637E-06
    52 0.14415205789686E-04
    53 -.14545582459553E-04
    54 -.30697189088739E-04
    55 -.48066497173370E-05
    56 0.17861807641932E-04
    57 0.28973781497208E-05
    58 -.13497928248774E-03
    59 0.13208190433802E-03
    60 0.13929305670350E-03
    61 -.27226948352108E-04
    62 -.74696446149086E-04
    63 0.36085825977980E-05
    64 -.89963077719376E-05
    65 -.65970739874293E-05
    66 -.47152849891789E-05
    67 0.99132841138364E-05
    68 0.72764272156623E-05
    69 -.12613660548059E-06
    70 0.21565293209009E-05
    71 0.15744763174302E-05
    72 -.12837576076321E-05
    73 0.24544583497349E-04
    74 0.34370705599238E-04
    75 -.18769841299306E-03
    76 0.13960339904768E-02
    77 -.13153968521286E-02
    78 0.42244211339055E-04
    79 -.31038158090996E-04
    80 0.14615233462836E-05
    81 -.17399744459809E-03
    82 -.36976815861171E-03
    83 -.47464935403175E-03
    84 -.18749305813918E-02
    85 0.34301304394039E-03
    86 -.55079403731654E-03
    87 0.16741990055889E-04
    88 0.68627393152608E-06
    89 -.17428263987415E-04
    90 -.41664427117479E-04
    91 0.60787264799028E-05
    92 0.24104336125696E-04
    93 -.13229378420331E-03
    94 0.40237093560598E-04
    95 0.92056690642713E-04
    96 0.15758796977883E-03
    97 -.32290625976194E-04
    98 0.18529383410639E-04
    99 -.11587287991260E-04
   100 -.15539635106669E-04
   101 -.51680605597327E-05
   102 -.46018429860973E-05
   103 0.12627035462291E-04
   104 -.49975259475861E-05
   105 0.20147821160092E-04
   106 0.82215728041418E-05
   107 0.11931206781625E-04
   108 0.82909178574798E-05
   109 0.39131370995906E-04
   110 -.23974286488290E-03
   111 0.56031427947667E-03
   112 0.36638104737758E-02
   113 -.10347910035605E-02
   114 -.30424085238826E-03
   115 -.39165175251513E-03
   116 -.55968302655550E-03
   117 -.61972524616355E-02
   118 -.36454585897274E-02
   119 -.69458780848585E-02
   120 0.41617448519020E-02
   121 0.46608876553255E-02
   122 0.65664139069577E-02
   123 -.37508215597824E-04
   124 -.31534896597720E-04
   125 0.69043112195544E-04
   126 0.85762274170547E-04
   127 0.14490953626536E-03
   128 0.14654122818769E-03
   129 -.89422046359975E-03
   130 -.30165630643636E-03
   131 0.11958767700361E-02
   132 0.17036811633910E-02
   133 0.16176170144699E-02
   134 0.17473844130678E-02
   135 -.35988197337459E-04
   136 0.12314456846862E-04
   137 0.65360207533331E-04
   138 0.68009638090216E-04
   139 0.16402531998587E-04
   140 -.52343693436949E-04
   141 -.19726404709674E-04
   142 -.32924109567930E-04
   143 -.35346226803864E-04
   144 0.17104116285614E-04
   145 0.43508576383861E+00
   146 0.63947416066319E+00
   147 0.36873174074478E-01
   148 -.32504397377169E-01
   149 0.13658871832887E-01
   150 0.10611157432997E-02
   151 0.11177374246217E-02
   152 0.16564847486310E-02
   153 -.33291756514394E-02
   154 -.33178066395666E-02
   155 -.50638052222987E-02
   156 0.84020680796271E-04
   157 0.44889882649023E-03
   158 0.52999942733196E-03
   159 -.38061166305859E-04
   160 -.30149649175246E-04
   161 0.68210815481105E-04
   162 0.98453670866020E-04
   163 0.11322300770648E-03
   164 0.94018855183810E-04
   165 0.17321392145952E-03
   166 0.14999861044909E-03
   167 -.32321253190861E-03
   168 -.43881123930268E-03
   169 -.58005592408694E-03
   170 -.53638427331664E-03
   171 0.21193297131960E-04
   172 0.21197001041754E-04
   173 0.58789638168304E-05
   174 -.29389933420705E-05
   175 0.24142350419349E-05
   176 -.10951437953021E-05
   177 -.25494798490578E-04
   178 -.30852996191033E-04
   179 -.67923138437145E-05
   180 -.32626820387108E-04
   181 0.24433075690509E-04
   182 -.12058807932687E-03
   183 0.13436394580486E-02
   184 -.52025674354292E-02
   185 -.44883998011361E-02
   186 -.18039248985292E-04
   187 0.91273460960748E-04
   188 0.74277720633711E-04
   189 -.45701444009352E-02
   190 -.18570986503608E-02
   191 -.43935239927352E-02
   192 -.11258248320657E-02
   193 -.28528758021129E-02
   194 -.32222049734157E-02
   195 0.15426096519827E-04
   196 -.18555928270556E-04
   197 0.31298317507299E-05
   198 -.11595217501334E-05
   199 0.59284679920549E-04
   200 0.50874471061337E-04
   201 0.85437220210273E-03
   202 -.25432154077497E-03
   203 -.60005066132777E-03
   204 -.54557770788384E-03
   205 -.38815612960107E-03
   206 -.12577623033356E-02
   207 -.30754412193972E-05
   208 0.10266630803433E-04
   209 0.10643946586176E-04
   210 0.14567530366973E-04
   211 -.83941270194476E-05
   212 0.33922894571627E-05
   213 -.10441392990547E-04
   214 -.53800036063744E-05
   215 -.17672642326502E-04
   216 0.62100572697193E-05
   217 0.61805887741289E-05
   218 -.30469702141030E-04
   219 -.23245584891306E-03
   220 0.73577647791698E-02
   221 0.30096493098777E-02
   222 0.22109818104473E-05
   223 0.30986387855855E-05
   224 0.88331314341018E-05
   225 -.31784346302479E-02
   226 -.20213411153030E-02
   227 -.38060011787429E-02
   228 0.13504429552594E-02
   229 -.14238173127976E-02
   230 -.59797897517704E-03
   231 0.32795536234525E-04
   232 -.30597734710772E-04
   233 -.21978015237525E-05
   234 0.77285920850314E-05
   235 0.55369182870482E-04
   236 0.14697541144422E-04
   237 -.56902219627960E-04
   238 -.26754719975291E-03
   239 0.32444941938087E-03
   240 0.53639378827603E-03
   241 0.61529498243354E-03
   242 0.24061997045630E-03
   243 -.11433129609417E-04
   244 0.17343924792138E-05
   245 0.17702603734753E-04
   246 0.22449298605275E-04
   247 0.12558995755411E-05
   248 -.23429594447088E-04
   249 -.71101456039418E-05
   250 -.35828312654530E-05
   251 -.32094075070146E-06
   252 0.56021822346271E-05
   253 -.14676843838933E-05
   254 0.71778004029632E-04
   255 -.64880352063228E-04
   256 0.27099450049675E-04
   257 0.86429724406966E-06
   258 -.91715266802674E-05
   259 -.39926374570886E-04
   260 -.21412598721234E-03
   261 0.92400573804161E-03
   262 0.48361671420467E-04
   263 -.84345683826108E-04
   264 -.38692871133275E-04
   265 0.73114356990943E-05
   266 0.55093894184079E-04
   267 -.19193568026134E-03
   268 0.59831656580329E-05
   269 -.26166384435595E-04
   270 -.76604807930777E-05
   271 -.83053627015434E-05
   272 0.60278632373996E-04
   273 0.13312725197719E-02
   274 -.48147752307746E-05
   275 -.31193668083441E-04
   276 -.39285654606372E-04
   277 0.10149110854891E-04
   278 0.35025051660451E-03
   279 0.20786112878689E-04
   280 -.30653806892279E-04
   281 -.34485510584600E-04
   282 -.20782845139288E-04
   283 0.98409260848905E-04
   284 0.57497738911187E-03
   285 -.10935211517856E-02
   286 -.21582838324493E-03
   287 0.78420299284277E-04
   288 -.48978889370767E-04
   289 0.12835420200944E-03
   290 0.26931250922599E-03
   291 -.14469127167934E-02
   292 -.10502597120606E-03
   293 0.16614446368866E-04
   294 -.48568700492475E-04
   295 0.40405377855132E-04
   296 0.80042200713843E-03
   297 0.57607647752299E-03
   298 0.27743586289253E-04
   299 -.11545393298610E-03
   300 -.93041688143903E-04
 Sym=     3a   
 Ene= -.10299230459641E+02
 Spin= Alpha
 Occup= 2.000000
     1 0.22736350006427E-05
     2 -.40202114184456E-06
     3 -.23800261901193E-03
     4 0.24609914577703E-02
     5 -.60220287724336E-02
     6 0.37903595425736E-04
     7 -.12696508016963E-04
     8 -.55889139068117E-05
     9 0.10173563607176E-02
    10 0.90751570821283E-03
    11 -.77963299102308E-03
    12 -.19696282961982E-02
    13 -.41937203845584E-03
    14 0.11111207143374E-03
    15 0.54456676628332E-04
    16 -.24265991148091E-04
    17 -.30190685480241E-04
    18 0.26706034114632E-04
    19 -.21764908746864E-04
    20 0.48867554740739E-05
    21 -.59226611173661E-04
    22 0.19354280964555E-05
    23 0.57291183077206E-04
    24 0.17720002417787E-03
    25 -.17276455921540E-03
    26 -.25615445465160E-03
    27 0.31519768023507E-05
    28 -.97110359323228E-05
    29 -.30388655572695E-06
    30 0.93360211888660E-06
    31 0.80218166829052E-05
    32 -.30700417512359E-05
    33 -.51624227550217E-05
    34 0.50069052030649E-05
    35 0.34777483488682E-05
    36 -.19321454332487E-04
    37 -.46487888766069E-04
    38 -.64828029994538E-05
    39 0.25369362621143E-04
    40 -.25549643392056E-02
    41 0.42189687028324E-02
    42 -.27010452558173E-03
    43 0.35042643860369E-04
    44 0.78279286262007E-04
    45 0.43533873395184E-03
    46 0.13606736430280E-02
    47 -.97172604650507E-03
    48 -.55115277444977E-03
    49 -.99702742412877E-03
    50 0.14087546049664E-02
    51 -.26866635718028E-04
    52 -.24370269956549E-04
    53 0.51236905674577E-04
    54 0.93909200211520E-04
    55 -.14490295436666E-05
    56 -.46546687081027E-04
    57 -.42108897283186E-03
    58 0.30133743424216E-03
    59 0.11975153858970E-03
    60 -.33427891896464E-03
    61 0.28751776554743E-03
    62 0.54473979617743E-03
    63 -.14287414307457E-04
    64 0.54761022651237E-05
    65 -.85747611352836E-05
    66 0.76225139796387E-05
    67 0.14595703312992E-05
    68 0.11131029940366E-04
    69 0.11546063788867E-04
    70 -.88065324812335E-05
    71 0.37321933322418E-06
    72 0.27855005736139E-05
    73 -.23220967422120E-04