[Molden Format]
[Title]
                                                                                
[Atoms] AU
 n     1    7 0.77039988397300E-02 0.81245533220000E-02 0.52678933788214E+00
 h     2    1 0.17395241856523E+01 -.37836174399509E+00 -.19529936189609E+00
 h     3    1 -.11985058872984E+01 -.13234241849547E+01 -.13786661438585E+00
 h     4    1 -.54872229719365E+00 0.16936613756278E+01 -.19362336160020E+00
[GTO]
    1 0
 s    6 1.00
 0.19730800647000E+05 0.58626402628763E-03
 0.29578958745000E+04 0.45428820586397E-02
 0.67322133595000E+03 0.23558413450084E-01
 0.19068249494000E+03 0.94709193292923E-01
 0.62295441898000E+02 0.29719784913376E+00
 0.22654161182000E+02 0.66916246895232E+00
 s    2 1.00
 0.89791477428000E+01 0.64596683630063E+00
 0.36863002370000E+01 0.38700574393705E+00
 s    1 1.00
 0.84660076805000E+00 0.10000000000000E+01
 s    1 1.00
 0.33647133771000E+00 0.10000000000000E+01
 s    1 1.00
 0.13647653675000E+00 0.10000000000000E+01
 p    4 1.00
 0.49200380510000E+02 0.11448825101764E-01
 0.11346790537000E+02 0.78422337970864E-01
 0.34273972411000E+01 0.30818094738830E+00
 0.11785525134000E+01 0.72027196368413E+00
 p    1 1.00
 0.41642204972000E+00 0.10000000000000E+01
 p    1 1.00
 0.14260826011000E+00 0.10000000000000E+01
 d    1 1.00
 0.16540000000000E+01 0.10000000000000E+01
 d    1 1.00
 0.46900000000000E+00 0.10000000000000E+01
 f    1 1.00
 0.10930000000000E+01 0.10000000000000E+01
 
    2 0
 s    3 1.00
 0.34061341000000E+02 0.25439307208879E-01
 0.51235746000000E+01 0.19008594890375E+00
 0.11646626000000E+01 0.85244113011042E+00
 s    1 1.00
 0.32723041000000E+00 0.10000000000000E+01
 s    1 1.00
 0.10307241000000E+00 0.10000000000000E+01
 p    1 1.00
 0.80000000000000E+00 0.10000000000000E+01
 
    3 0
 s    3 1.00
 0.34061341000000E+02 0.25439307208879E-01
 0.51235746000000E+01 0.19008594890375E+00
 0.11646626000000E+01 0.85244113011042E+00
 s    1 1.00
 0.32723041000000E+00 0.10000000000000E+01
 s    1 1.00
 0.10307241000000E+00 0.10000000000000E+01
 p    1 1.00
 0.80000000000000E+00 0.10000000000000E+01
 
    4 0
 s    3 1.00
 0.34061341000000E+02 0.25439307208879E-01
 0.51235746000000E+01 0.19008594890375E+00
 0.11646626000000E+01 0.85244113011042E+00
 s    1 1.00
 0.32723041000000E+00 0.10000000000000E+01
 s    1 1.00
 0.10307241000000E+00 0.10000000000000E+01
 p    1 1.00
 0.80000000000000E+00 0.10000000000000E+01
 
[MO]
 Sym=     1a   
 Ene= -.14288254515880E+02
 Spin= Alpha
 Occup= 2.000000
     1 0.44826820833878E+00
     2 0.62712116552159E+00
     3 0.34096865021474E-01
     4 -.21057669007920E-01
     5 0.14894706395407E-01
     6 -.24748264237727E-04
     7 -.25231037886542E-04
     8 -.17411456388559E-02
     9 0.13119628493056E-04
    10 0.12611866052859E-04
    11 0.98674613748662E-03
    12 -.26298090300408E-04
    13 -.26825080811266E-04
    14 -.18337815327932E-02
    15 0.38912605108500E-04
    16 0.39036563523397E-04
    17 -.77949168631897E-04
    18 0.35876423689091E-07
    19 -.17995771168229E-05
    20 -.20994870185960E-05
    21 0.39787468787072E-04
    22 0.39997486807491E-04
    23 -.79784955594563E-04
    24 -.37509048063359E-06
    25 -.17018516120006E-05
    26 -.15341873032562E-05
    27 0.24480841701806E-04
    28 0.18029398754102E-04
    29 0.25137806962335E-04
    30 -.33668844682835E-04
    31 -.24994060875324E-04
    32 -.16936173125799E-04
    33 0.82434896784578E-06
    34 0.80508415075074E-06
    35 -.16789733978030E-04
    36 0.99291789339240E-06
    37 0.17856972241746E-03
    38 -.24678586956791E-03
    39 -.25442920940755E-02
    40 0.49292946903962E-03
    41 -.10955850347700E-03
    42 -.20732949895543E-03
    43 0.17832972439709E-03
    44 -.24824025972042E-03
    45 -.25429412682236E-02
    46 -.34389683599067E-03
    47 -.37943897371994E-03
    48 -.19065230664606E-03
    49 0.17851084991641E-03
    50 -.24665731035348E-03
    51 -.25451875248078E-02
    52 -.15823046704665E-03
    53 0.47996465101512E-03
    54 -.20709949814904E-03
 Sym=     2a   
 Ene= -.84955562413654E+00
 Spin= Alpha
 Occup= 2.000000
     1 -.95254121923570E-01
     2 -.21440159505691E+00
     3 0.32738549382941E+00
     4 0.37704375236390E+00
     5 0.12174476507877E+00
     6 -.11126490283505E-02
     7 -.11874592406519E-02
     8 -.73641723060125E-01
     9 -.71055661464382E-03
    10 -.77604370255368E-03
    11 -.58485903801638E-01
    12 -.27507554669315E-03
    13 -.29668152208933E-03
    14 -.13298983646517E-01
    15 0.11145719862044E-02
    16 0.11154757224236E-02
    17 -.22300477086280E-02
    18 0.11006124790146E-04
    19 -.68299666100393E-04
    20 -.71489855666786E-04
    21 0.11912566161166E-02
    22 0.11696109089497E-02
    23 -.23608675250663E-02
    24 -.15208116967906E-04
    25 -.75073737995281E-04
    26 -.69892623165488E-04
    27 0.67286096454356E-03
    28 0.49066370349622E-03
    29 0.10053341311907E-02
    30 -.94882829711317E-03
    31 -.70110219360651E-03
    32 -.68074171426378E-03
    33 0.46090583437889E-04
    34 0.42807756540893E-04
    35 -.66805556020205E-03
    36 0.26724740357550E-04
    37 0.91310444084225E-01
    38 0.81628698923385E-01
    39 0.83193084917843E-02
    40 -.15399178167534E-01
    41 0.33940502755932E-02
    42 0.39131075634712E-02
    43 0.91340248016049E-01
    44 0.81817588486145E-01
    45 0.80922721595088E-02
    46 0.10704385647849E-01
    47 0.11822883907466E-01
    48 0.34296838555691E-02
    49 0.91321143565225E-01
    50 0.81641421540299E-01
    51 0.82919924062094E-02
    52 0.48979245342541E-02
    53 -.14997097290577E-01
    54 0.38925590718794E-02
 Sym=     3a   
 Ene= -.46081232742657E+00
 Spin= Alpha
 Occup= 2.000000
     1 -.17168902820443E-05
     2 0.96464384395222E-05
     3 -.24512690432088E-03
     4 0.83780350594231E-03
     5 -.65544587456001E-03
     6 0.32098346216255E+00
     7 0.14058765560893E+00
     8 -.68226232212670E-02
     9 0.23532822746076E+00
    10 0.10322750560537E+00
    11 -.51413249992803E-02
    12 0.11943391061855E+00
    13 0.52371312474609E-01
    14 -.24955591873382E-02
    15 0.22431236077104E-02
    16 -.24595961222644E-02
    17 0.21647251455406E-03
    18 -.49515376293860E-02
    19 -.58303093936720E-02
    20 -.24406625692105E-02
    21 -.37427063305098E-03
    22 0.54005864180418E-04
    23 0.32026476887056E-03
    24 0.11829903673884E-04
    25 -.99817935446224E-02
    26 -.44254230842467E-02
    27 0.34292212043989E-03
    28 0.15541923205319E-03
    29 0.34774925714568E-04
    30 0.14372816907479E-03
    31 0.56422158580761E-04
    32 -.84230956390720E-04
    33 -.60380647244997E-03
    34 -.26493893930981E-03
    35 0.37575497704553E-04
    36 0.98411783172511E-04
    37 0.14250954044976E+00
    38 0.18979843432388E+00
    39 0.75864372014426E-01
    40 -.14067624831625E-01
    41 0.11569060701683E-01
    42 0.10310367562323E-01
    43 -.16037335451036E+00
    44 -.21367244827994E+00
    45 -.85006530117664E-01
    46 -.83013752807310E-02
    47 -.17663360799444E-01
    48 -.11267556538037E-01
    49 0.17784850246381E-01
    50 0.23403809012498E-01
    51 0.97048048272184E-02
    52 0.13781042019527E-01
    53 0.24328441645025E-02
    54 0.99657251125474E-03
 Sym=     4a   
 Ene= -.46080106638563E+00
 Spin= Alpha
 Occup= 2.000000
     1 -.63825872863400E-05
     2 -.79098434314623E-05
     3 -.10227263499535E-03
     4 0.45476328267749E-03
     5 -.42171302561039E-03
     6 -.14070073721395E+00
     7 0.32107184624003E+00
     8 -.28467473814764E-02
     9 -.10310499055383E+00
    10 0.23523736975811E+00
    11 -.21740132823898E-02
    12 -.52458250376062E-01
    13 0.11952509884064E+00
    14 -.96947847837742E-03
    15 -.41057321308020E-02
    16 0.40104650163309E-02
    17 0.95267114471172E-04
    18 -.28122374604689E-02
    19 0.27004770072362E-02
    20 -.59122179602083E-02
    21 0.32667832101021E-03
    22 -.46136993490324E-03
    23 0.13469161389303E-03
    24 0.81669377494993E-04
    25 0.43760265035394E-02
    26 -.99685907942665E-02
    27 -.13959600734252E-03
    28 0.33795827220592E-03
    29 0.17747580760626E-04
    30 -.76140623376865E-04
    31 0.14770329137546E-03
    32 0.10838914088294E-03
    33 0.26342832046013E-03
    34 -.60112189350194E-03
    35 -.13220001909309E-03
    36 0.61837728001863E-04
    37 -.10287499605415E+00
    38 -.13711377120619E+00
    39 -.54360288580699E-01
    40 0.13811592601386E-01
    41 0.84518829054013E-02
    42 -.78203074767880E-02
    43 -.72023634386996E-01
    44 -.96031578764437E-01
    45 -.38117781705754E-01
    46 -.15069340867109E-01
    47 0.22801547000822E-02
    48 -.50712919769111E-02
    49 0.17485389026851E+00
    50 0.23302982641248E+00
    51 0.92758448196002E-01
    52 0.49718737211305E-02
    53 -.19291766754323E-01
    54 0.12875211575208E-01
 Sym=     5a   
 Ene= -.26474709660908E+00
 Spin= Alpha
 Occup= 2.000000
     1 -.32198266132965E-01
     2 -.73664680775833E-01
     3 0.11693892432963E+00
     4 0.18598036408736E+00
     5 0.14724242696698E+00
     6 0.59602624063750E-02
     7 0.62683023453656E-02
     8 0.40696889431239E+00
     9 0.47777221332750E-02
    10 0.45834105974836E-02
    11 0.32934786679548E+00
    12 0.48120649633240E-02
    13 0.49078070941456E-02
    14 0.34951487993767E+00
    15 0.10932194803149E-02
    16 0.10999822706478E-02
    17 -.21932017509627E-02
    18 0.11544262083996E-04
    19 -.78230592538378E-04
    20 -.69345388613760E-04
    21 0.88138452343650E-02
    22 0.86574216147263E-02
    23 -.17471266849091E-01
    24 0.17607613037642E-03
    25 -.41365422911295E-03
    26 -.32644233793979E-03
    27 0.14393392955177E-03
    28 0.11093404083165E-03
    29 -.11081940201201E-02
    30 -.15841154434289E-03
    31 -.11337694150724E-03
    32 0.73145896560592E-03
    33 -.34696086104966E-04
    34 -.35456692283741E-04
    35 0.75533933114250E-03
    36 -.12167254772246E-04
    37 -.42858446500906E-01
    38 -.46041263631220E-01
    39 -.29377029067031E-01
    40 0.79299537435742E-02
    41 -.14359928325108E-02
    42 0.17274786209657E-01
    43 -.42882028658540E-01
    44 -.46987488521187E-01
    45 -.29272104064264E-01
    46 -.51169834597397E-02
    47 -.56964672631032E-02
    48 0.17441663521778E-01
    49 -.42790987234749E-01
    50 -.45482952869281E-01
    51 -.29389312811270E-01
    52 -.20830148475958E-02
    53 0.75373523808636E-02
    54 0.17376251673274E-01
 Sym=     6a   
 Ene= 0.26332752479946E-01
 Spin= Alpha
 Occup= 0.000000
     1 0.41297981323186E-01
     2 0.99880853242881E-01
     3 -.25286858831934E+00
     4 0.15035089692570E+00
     5 -.20709230525166E+01
     6 0.14875765921694E-02
     7 0.16063109142184E-02
     8 0.10964896333104E+00
     9 0.42814102429207E-03
    10 0.72631345786130E-03
    11 0.48552888195494E-01
    12 0.57385145252439E-02
    13 0.61559246816265E-02
    14 0.38623485454723E+00
    15 0.11418229021815E-02
    16 0.11465956513521E-02
    17 -.22884185535336E-02
    18 -.90209775438655E-05
    19 -.45762881224781E-04
    20 -.50580311645590E-04
    21 0.37439818511550E-02
    22 0.37940935572159E-02
    23 -.75380754083710E-02
    24 -.23614284730111E-04
    25 -.21403649920882E-03
    26 -.24800721217279E-03
    27 0.64142434791897E-03
    28 0.46906632575037E-03
    29 0.45075521029945E-03
    30 -.88114615586063E-03
    31 -.65009613831187E-03
    32 -.30332457840162E-03
    33 0.20585089238445E-04
    34 0.20777624111540E-04
    35 -.30142699646345E-03
    36 0.22864620423871E-04
    37 0.18826259093708E-01
    38 0.20941538194477E-01
    39 0.99862408633885E+00
    40 0.34341751318686E-01
    41 -.77001469810123E-02
    42 -.11663271097562E-01
    43 0.18773941650373E-01
    44 0.21661159016692E-01
    45 0.99660153525949E+00
    46 -.23855033030319E-01
    47 -.26316686318884E-01
    48 -.10560055539031E-01
    49 0.18829065758610E-01
    50 0.20508615444296E-01
    51 0.99863027667709E+00
    52 -.11039939444265E-01
    53 0.33510398358275E-01
    54 -.11689175436152E-01
 Sym=     7a   
 Ene= 0.10893800247536E+00
 Spin= Alpha
 Occup= 0.000000
     1 0.27800541919811E-04
     2 0.11119742024443E-03
     3 -.77814863104617E-03
     4 0.23426082118414E-02
     5 -.73176926495063E-02
     6 0.19588413162070E+00
     7 0.16017672028526E+00
     8 -.52775491837558E-02
     9 0.46734392636506E-01
    10 0.38101205519459E-01
    11 -.14254669055571E-02
    12 0.72490661742593E+00
    13 0.59235292766745E+00
    14 -.17969109610339E-01
    15 -.64062989642629E-03
    16 0.68009594518491E-03
    17 -.39466048758620E-04
    18 0.29957508709926E-02
    19 0.51033772384559E-03
    20 0.39199627696733E-03
    21 -.64136931084161E-02
    22 0.69268103803559E-02
    23 -.51311727193990E-03
    24 0.30938883324704E-01
    25 0.12450856234339E-01
    26 0.99284417208738E-02
    27 0.38427287124474E-04
    28 0.38829787560714E-05
    29 0.52440263572864E-05
    30 -.56703474888676E-04
    31 -.46092117686867E-04
    32 0.43875218586693E-03
    33 0.51478591679410E-05
    34 0.40882555014609E-04
    35 -.44578778551334E-03
    36 -.20048442830274E-02
    37 -.15926153806251E-01
    38 0.77167284019870E-01
    39 -.13562509496640E+01
    40 -.36229433177124E-01
    41 0.15341218888800E-01
    42 0.18721817838556E-01
    43 0.25098956767623E-01
    44 -.12029001768995E+00
    45 0.21558116931117E+01
    46 -.40883970076543E-01
    47 -.47106663284156E-01
    48 -.28048383370549E-01
    49 -.93589462042147E-02
    50 0.46136171679200E-01
    51 -.79447159476056E+00
    52 0.15070868739111E-01
    53 -.18989587750156E-01
    54 0.10901928771319E-01
 Sym=     8a   
 Ene= 0.10903511810073E+00
 Spin= Alpha
 Occup= 0.000000
     1 0.19632381580141E-06
     2 0.85052986078339E-05
     3 -.15842541142817E-03
     4 0.42731948142427E-03
     5 0.21702402128155E-03
     6 -.16027822410581E+00
     7 0.19596486226930E+00
     8 -.60735498955903E-03
     9 -.37446289550141E-01
    10 0.45971003930272E-01
    11 -.67506910737930E-04
    12 -.59214790882737E+00
    13 0.72545521818060E+00
    14 -.28102571362742E-02
    15 0.25731423052270E-02
    16 -.25743772629046E-02
    17 0.12349576776944E-05
    18 0.76560631636308E-03
    19 -.47976635775664E-03
    20 0.57426975296575E-03
    21 0.26434801405390E-01
    22 -.26333340744407E-01
    23 -.10146066098269E-03
    24 0.77698222476120E-02
    25 -.11271491871048E-01
    26 0.13281855113522E-01
    27 -.62830499459053E-04
    28 0.76058646905850E-04
    29 0.59966921461467E-05
    30 -.16999772694656E-05
    31 -.38317548806489E-04
    32 -.17570826666026E-02
    33 0.85995937979890E-04
    34 -.63725834048391E-04
    35 0.17490372598352E-02
    36 -.50772244681464E-03
    37 0.19828434234912E-01
    38 -.97356411603755E-01
    39 0.17034858479707E+01
    40 0.48912409698395E-01
    41 -.52970842416366E-02
    42 -.24008958664376E-01
    43 0.37961326082079E-02
    44 -.17888878612241E-01
    45 0.32465144271760E+00
    46 -.12876908148014E-01
    47 -.10075160562273E-02
    48 -.42405509046317E-02
    49 -.23651369408612E-01
    50 0.11463573971019E+00
    51 -.20282117161445E+01
    52 0.15152312607613E-01
    53 -.56101685114765E-01
    54 0.28393087257030E-01
 Sym=     9a   
 Ene= 0.29898275014588E+00
 Spin= Alpha
 Occup= 0.000000
     1 -.13048652876602E-03
     2 -.25946714100462E-03
     3 -.51922177176361E-03
     4 0.51532416970550E-02
     5 -.95559410635211E-03
     6 -.66972469476833E-02
     7 0.11317584913489E-01
     8 0.77340470451852E-03
     9 -.14846551059703E+00
    10 0.24806641499324E+00
    11 0.93399392981235E-04
    12 -.84516563387947E+00
    13 0.14107633864417E+01
    14 -.14211136447359E-01
    15 0.12183326958598E-01
    16 -.12037522450321E-01
    17 -.14580450827781E-03
    18 0.60051604889173E-02
    19 -.75206221816689E-02
    20 0.12177356921088E-01
    21 -.68297912055110E-01
    22 0.67450642751470E-01
    23 0.84726930363978E-03
    24 -.33844106872503E-01
    25 0.50836974279147E-01
    26 -.82705400783275E-01
    27 -.61926332006355E-03
    28 0.11667505519715E-02
    29 0.48080068963252E-04
    30 -.38918015835428E-03
    31 0.73139017637912E-03
    32 0.51064683175477E-02
    33 0.12200090861349E-02
    34 -.22967503045754E-02
    35 -.51709744990865E-02
    36 0.24118231274824E-02
    37 0.81645175943788E-01
    38 0.10515919232777E+01
    39 0.27850179929736E-01
    40 -.81595044025644E-01
    41 0.36355042249720E-01
    42 0.24744173436260E-01
    43 0.34806843871927E-01
    44 0.44670067912114E+00
    45 0.12360314090714E-01
    46 0.78130771100314E-02
    47 0.43350059215864E-01
    48 0.94579320372428E-02
    49 -.11662362289277E+00
    50 -.15059253254734E+01
    51 -.38589273713089E-01
    52 -.44247246944788E-01
    53 0.11733466342851E+00
    54 -.35674016124462E-01
 Sym=    10a   
 Ene= 0.29931010262318E+00
 Spin= Alpha
 Occup= 0.000000
     1 -.18827047087840E-03
     2 -.41658008524703E-03
     3 -.67088610154302E-04
     4 0.48065513202787E-02
     5 0.33977628832720E-02
     6 0.11511223307432E-01
     7 0.66997534957702E-02
     8 0.10693292560247E-02
     9 0.24915208725077E+00
    10 0.14996950405572E+00
    11 -.34030449667468E-02
    12 0.14080444552730E+01
    13 0.84219914820045E+00
    14 -.41275557378946E-01
    15 -.48485328362919E-02
    16 0.53299688327411E-02
    17 -.48143599644924E-03
    18 0.14552493401815E-01
    19 0.11862158638642E-01
    20 0.68694989807866E-02
    21 0.26888210952644E-01
    22 -.30053846900637E-01
    23 0.31656359479930E-02
    24 -.82358207375644E-01
    25 -.80821804089158E-01
    26 -.47213121343575E-01
    27 0.12854950331142E-02
    28 0.88795816221711E-03
    29 0.14956723759463E-03
    30 0.76567135984659E-03
    31 0.46149495762863E-03
    32 -.22205713673846E-02
    33 -.24903439271157E-02
    34 -.16528158447646E-02
    35 0.20199058611035E-02
    36 0.57714581172903E-02
    37 -.87656109875054E-01
    38 -.11313060870082E+01
    39 -.27934191953587E-01
    40 0.95175394455000E-01
    41 -.39019104504515E-02
    42 -.27242554027614E-01
    43 0.11464835466536E+00
    44 0.14731648642346E+01
    45 0.34732675262223E-01
    46 0.88287938843530E-01
    47 0.86804337268435E-01
    48 0.31319434656231E-01
    49 -.27221907763278E-01
    50 -.35379556432795E+00
    51 -.73307157088484E-02
    52 0.13557059266610E-01
    53 0.35418961766208E-01
    54 -.89201437321831E-02
 Sym=    11a   
 Ene= 0.35228671271452E+00
 Spin= Alpha
 Occup= 0.000000
     1 0.25157878796383E-01
     2 0.51700660347145E-01
     3 0.45284283638371E-01
     4 -.75723965273389E+00
     5 -.43256826921065E-01
     6 -.41873487329386E-02
     7 -.40317339179919E-02
     8 -.27968428269774E+00
     9 -.85704613470284E-02
    10 -.76969032502321E-02
    11 -.61270558627654E+00
    12 0.24746916692031E-01
    13 0.29085908925868E-01
    14 0.13729278354519E+01
    15 -.12223291325048E-02
    16 -.12472528052007E-02
    17 0.24695819377055E-02
    18 0.30879350950263E-04
    19 0.17647762449147E-03
    20 0.17689241973811E-03
    21 -.36938721055464E-02
    22 -.37635529130181E-02
    23 0.74574250185645E-02
    24 0.18715800625687E-04
    25 -.48167406554077E-03
    26 -.47149847310479E-03
    27 -.16385861822465E-02
    28 -.11936698355819E-02
    29 -.11837326162841E-02
    30 0.22614915388557E-02
    31 0.16776441767727E-02
    32 0.81674188555719E-03
    33 -.63097484558728E-04
    34 -.76168039741408E-04
    35 0.77140207275981E-03
    36 -.35704929074491E-04
    37 0.12951364341642E-01
    38 0.39537996430144E+00
    39 0.61872238506487E-03
    40 -.27548318733099E-01
    41 0.62910232100218E-02
    42 0.80677296871752E-02
    43 0.13979670170177E-01
    44 0.40600168864178E+00
    45 0.47383828974982E-03
    46 0.19631416556862E-01
    47 0.21836585691940E-01
    48 0.72875247751000E-02
    49 0.12392507900946E-01
    50 0.39071494348402E+00
    51 0.19035500238096E-02
    52 0.88178240882038E-02
    53 -.26672883172157E-01
    54 0.80668364308266E-02
 Sym=    12a   
 Ene= 0.45445048736420E+00
 Spin= Alpha
 Occup= 0.000000
     1 0.60433152081266E-01
     2 0.12679329317562E+00
     3 0.14136023904594E+00
     4 -.24963890932122E+01
     5 0.29108616004736E+01
     6 0.28641368628719E-02
     7 0.32024156197756E-02
     8 0.17858487428820E+00
     9 0.84127497601991E-02
    10 0.93071989014621E-02
    11 0.58918697493697E+00
    12 -.71123356912889E-02
    13 -.75734783558247E-02
    14 -.48573036175342E+00
    15 0.21534221740316E-02
    16 0.21410749758638E-02
    17 -.42944971498954E-02
    18 -.45511696681214E-05
    19 -.10857890870239E-03
    20 -.10047099720282E-03
    21 -.13738406664628E-02
    22 -.13325039182078E-02
    23 0.27063445846706E-02
    24 0.23995555531853E-03
    25 0.23156552353837E-03
    26 0.27528042708822E-03
    27 -.48797031080769E-02
    28 -.35840994865562E-02
    29 -.50713139713406E-02
    30 0.67337587043500E-02
    31 0.49999288835425E-02
    32 0.34224303849319E-02
    33 -.18694998854381E-03
    34 -.19135482950546E-03
    35 0.33814512801653E-02
    36 -.23430029837351E-03
    37 0.94122983491563E-01
    38 0.94435822035394E+00
    39 -.10954250107052E+01
    40 -.53702900376731E-01
    41 0.12321892300841E-01
    42 0.39460212005684E-01
    43 0.94166328628544E-01
    44 0.94503783626982E+00
    45 -.10967702287504E+01
    46 0.37529566415268E-01
    47 0.41525212921531E-01
    48 0.37458810620630E-01
    49 0.93937354139390E-01
    50 0.94323907734743E+00
    51 -.10940893699435E+01
    52 0.17674763128068E-01
    53 -.52275643537477E-01
    54 0.39335936611568E-01
 Sym=    13a   
 Ene= 0.49709224512856E+00
 Spin= Alpha
 Occup= 0.000000
     1 -.24184855569159E-01
     2 -.42168745406060E-01
     3 -.11618334271383E+00
     4 0.17540970389776E+01
     5 -.62138801339001E+01
     6 -.26158958332363E-02
     7 -.40007826395754E-02
     8 0.12918062321459E-01
     9 -.37750450617246E-02
    10 -.83840193816408E-02
    11 0.16176555090159E+00
    12 0.30594880095700E-01
    13 0.39860521171377E-01
    14 0.11479582139988E+01
    15 0.46396089917322E-02
    16 0.46147837526259E-02
    17 -.92543927443581E-02
    18 0.51012648748781E-04
    19 -.22070032212655E-03
    20 -.19672559339397E-03
    21 0.11688395435639E-01
    22 0.11708613290935E-01
    23 -.23397008726574E-01
    24 -.69588848338213E-03
    25 -.75758717289725E-03
    26 -.88480449444712E-03
    27 -.24645882834509E-02
    28 -.18097300875487E-02
    29 -.18202520560512E-02
    30 0.34010264530447E-02
    31 0.25130541713362E-02
    32 0.12270358426555E-02
    33 -.94434290037260E-04
    34 -.85046473324886E-04
    35 0.12150885574530E-02
    36 -.76991594288333E-04
    37 0.21874628715326E-01
    38 0.11184106249092E+01
    39 0.10023211255386E+01
    40 -.26779933012611E-01
    41 0.64795214316319E-02
    42 0.36995521629498E-01
    43 0.20825545467962E-01
    44 0.11085059193094E+01
    45 0.10390625403064E+01
    46 0.19573586094956E-01
    47 0.21508764589335E-01
    48 0.36571691448115E-01
    49 0.22194183455395E-01
    50 0.11219508270719E+01
    51 0.99250426382774E+00
    52 0.91230375741148E-02
    53 -.26288206798899E-01
    54 0.37190930490019E-01
 Sym=    14a   
 Ene= 0.52235689583341E+00
 Spin= Alpha
 Occup= 0.000000
     1 0.16993405391174E-03
     2 0.31330362833558E-03
     3 0.88818892012216E-03
     4 -.11411043508077E-01
     5 0.31673728966278E-01
     6 0.21416974485559E+00
     7 -.29795757614536E+00
     8 0.12059434565886E-02
     9 0.62170079467581E+00
    10 -.86551205629219E+00
    11 0.37750666764629E-02
    12 -.11473374931618E+01
    13 0.15956725962085E+01
    14 -.12629111049238E-01
    15 -.23592033143340E-02
    16 0.23486392805699E-02
    17 0.10564033764116E-04
    18 -.84812411373411E-03
    19 -.15644060190701E-02
    20 0.21892452577361E-02
    21 0.26596201166355E-02
    22 -.29333039048499E-02
    23 0.27368378821446E-03
    24 0.12021175564047E-02
    25 -.26865943266527E-02
    26 0.40095689569435E-02
    27 0.46440175991877E-03
    28 -.68442410353944E-03
    29 -.39797096436073E-04
    30 0.26055997865910E-03
    31 -.35394580530505E-03
    32 -.17655171388584E-02
    33 -.88362032108845E-03
    34 0.12721970978772E-02
    35 0.18189105466213E-02
    36 -.64795140071718E-03
    37 -.76214020846956E-01
    38 -.59488107281116E+00
    39 0.17052125796122E+01
    40 0.19585133380069E-01
    41 -.17372715209237E-01
    42 -.50959573886395E-02
    43 -.21629339341445E-01
    44 -.17226819680727E+00
    45 0.47947167614088E+00
    46 0.94322714037253E-02
    47 -.17453201892412E-01
    48 -.13998106179644E-02
    49 0.97771272838020E-01
    50 0.75464013807042E+00
    51 -.22013531561041E+01
    52 0.14833656747105E-01
    53 -.26406431632835E-01
    54 0.65236041466490E-02
 Sym=    15a   
 Ene= 0.52295125311259E+00
 Spin= Alpha
 Occup= 0.000000
     1 0.31652493764599E-03
     2 0.52102626902736E-03
     3 0.23414495213388E-02
     4 -.25137703593742E-01
     5 0.77067502802579E-01
     6 -.29833131814694E+00
     7 -.21446067168953E+00
     8 0.75880316234637E-02
     9 -.86357981165101E+00
    10 -.61986661111465E+00
    11 0.21097821700708E-01
    12 0.15964369184123E+01
    13 0.11472189809686E+01
    14 -.54869203779436E-01
    15 0.74234585679835E-03
    16 -.77106721990885E-03
    17 0.28721363110493E-04
    18 -.25351628851772E-02
    19 0.21873192825009E-02
    20 0.15913464594351E-02
    21 -.10553502823281E-02
    22 0.93153214989261E-03
    23 0.12381813243549E-03
    24 0.26294809877610E-02
    25 0.41486452344351E-02
    26 0.28911840828605E-02
    27 -.72105268911576E-03
    28 -.54416326838510E-03
    29 -.10454945602978E-03
    30 -.37296690396483E-03
    31 -.25467592064001E-03
    32 0.62874601774114E-03
    33 0.13403606008980E-02
    34 0.98474755602054E-03
    35 -.48847820332521E-03
    36 -.19120385618979E-02
    37 0.68700135149676E-01
    38 0.52112025938210E+00
    39 -.15605855968239E+01
    40 -.22984560383215E-01
    41 -.92430147335617E-02
    42 0.45684305154485E-02
    43 -.10048551959974E+00
    44 -.78779408292720E+00
    45 0.22414802547032E+01
    46 -.22906452958210E-01
    47 -.19376828682250E-01
    48 -.60422486195326E-02
    49 0.31290682173622E-01
    50 0.23080132629684E+00
    51 -.72031843253628E+00
    52 -.14231833080377E-01
    53 -.14204486065837E-01
    54 0.19474686153993E-02
 Sym=    16a   
 Ene= 0.90785363499954E+00
 Spin= Alpha
 Occup= 0.000000
     1 -.47906093164338E-05
     2 -.53869792688507E-04
     3 0.94733382106473E-03
     4 -.29655332082878E-02
     5 0.22929326176257E-02
     6 0.33994975740487E-01
     7 0.29782990332059E-01
     8 -.19916953186172E-02
     9 0.44440596658003E-01
    10 0.40867668002531E-01
    11 -.77183043759379E-03
    12 0.13290349538565E+00
    13 0.11831245205416E+00
    14 -.33833240510094E-02
    15 -.20118261582845E-03
    16 0.53468428083717E-04
    17 0.14771418774474E-03
    18 0.80132634259287E-03
    19 -.19679389585879E-02
    20 -.16880318373484E-02
    21 0.60284943006074E-01
    22 -.47947064776136E-01
    23 -.12337878229937E-01
    24 -.28520761619451E+00
    25 0.25342639564461E+00
    26 0.22436219178677E+00
    27 0.50099322982282E-03
    28 0.48045207992509E-03
    29 0.42169393758582E-04
    30 0.32450163712397E-03
    31 0.28553811079440E-03
    32 -.40460240804806E-03
    33 -.99665458801456E-03
    34 -.93013221718060E-03
    35 0.34802622943957E-03
    36 0.21999305802373E-02
    37 0.80922057201642E-02
    38 -.11214901977995E+00
    39 -.12374753910931E-01
    40 0.15733308788131E-01
    41 -.13360955709156E+00
    42 0.92201812123801E-01
    43 -.13237088106583E-01
    44 0.19176456048942E+00
    45 0.19248995934147E-01
    46 0.32731699283180E-01
    47 0.63496896895470E-01
    48 -.15117100985195E+00
    49 0.54342382945362E-02
    50 -.78781458716766E-01
    51 -.80489045417417E-02
    52 -.14797945208152E+00
    53 -.16384140688203E-01
    54 0.62722645122122E-01
 Sym=    17a   
 Ene= 0.90822825468313E+00
 Spin= Alpha
 Occup= 0.000000
     1 0.90557912336688E-05
     2 0.41428921531439E-04
     3 -.39807668631833E-03
     4 0.11150292562047E-02
     5 -.22453244814240E-02
     6 0.29045332065298E-01
     7 -.33112922723058E-01
     8 0.30938122100697E-03
     9 0.40632939288245E-01
    10 -.46974678337506E-01
    11 -.24340165394053E-04
    12 0.11908485208580E+00
    13 -.13525554702733E+00
    14 0.85179458627558E-03
    15 -.71012263271387E-03
    16 0.75152055055983E-03
    17 -.41397917845954E-04
    18 -.18628296914173E-03
    19 -.17064708862355E-02
    20 0.19062815457582E-02
    21 0.25876931999733E+00
    22 -.26011455766888E+00
    23 0.13452376715553E-02
    24 0.63075105856914E-01
    25 0.21427051168757E+00
    26 -.24549898728452E+00
    27 0.40740988364926E-03
    28 -.45490554123629E-03
    29 -.25694386772244E-05
    30 0.20945467811142E-03
    31 -.28931246918642E-03
    32 -.19876405915322E-02
    33 -.75605239483843E-03
    34 0.89963229731383E-03
    35 0.19910878552600E-02
    36 -.51026120214178E-03
    37 0.10997674194577E-01
    38 -.15579130052827E+00
    39 -.16726869248779E-01
    40 0.79331896705913E-01
    41 0.82631324144776E-01
    42 0.11875961593907E+00
    43 0.14020274078237E-02
    44 -.22421043378934E-01
    45 -.16616286182078E-02
    46 -.12368160617169E+00
    47 0.10098567897363E+00
    48 0.17172813262689E-01
    49 -.12495069198049E-01
    50 0.17938118149761E+00
    51 0.19440259004879E-01
    52 -.42389079875949E-01
    53 -.85734213946554E-01
    54 -.13649108307463E+00
 Sym=    18a   
 Ene= 0.11487759270721E+01
 Spin= Alpha
 Occup= 0.000000
     1 -.30601489390690E-02
     2 -.11474920556553E-01
     3 0.20171799732752E+00
     4 -.32378861285927E+00
     5 -.27682362594911E+01
     6 0.10035502512637E-02
     7 0.13887733488444E-02
     8 0.11157309167979E+00
     9 0.93887334051126E-02
    10 0.11735356294487E-01
    11 0.26455229354319E+00
    12 0.15092410275901E-01
    13 0.17536711605420E-01
    14 0.83929132542583E+00
    15 0.36354698026831E-02
    16 0.36260618349942E-02
    17 -.72615316376773E-02
    18 0.10040287644936E-03
    19 -.12881801202856E-03
    20 -.43814766256327E-04