[Molden Format]
[Title]
                                                                                
[Atoms] AU
 c     1    6 0.58570063654367E+01 0.30630823278703E+00 0.26916375164754E+00
 o     2    8 0.33215547465528E+01 0.10675587337131E+01 0.87203222880700E+00
 c     3    6 0.14594026834692E+01 -.35694643137420E+00 -.13216609794502E+00
 o     4    8 0.18475482244504E+01 -.21404299804738E+01 -.14943633869116E+01
 c     5    6 -.11046331539844E+01 0.56685501086183E+00 0.71262498420589E+00
 c     6    6 -.32861970849296E+01 -.71971601784511E+00 -.65611054724593E+00
 n     7    7 -.56927306485162E+01 0.94713555373520E-01 0.44450893352565E+00
 h     8    1 0.61611711353560E+01 0.34683618669944E+00 -.17668954025874E+01
 h     9    1 0.70790921755219E+01 0.16629844359730E+01 0.12092588167269E+01
 h    10    1 0.62229999883231E+01 -.15978674160288E+01 0.96388233731695E+00
 h    11    1 -.11702272589648E+01 0.26192344492516E+01 0.47000383547460E+00
 h    12    1 -.12667139678405E+01 0.23657739946442E+00 0.27473998660068E+01
 h    13    1 -.31255124800023E+01 -.35825165351167E+00 -.26937671956453E+01
 h    14    1 -.31235648326305E+01 -.27601085060653E+01 -.41099099111928E+00
 h    15    1 -.71449286627562E+01 -.90779019442191E+00 -.29735985102559E+00
 h    16    1 -.60342653397625E+01 0.19400440853208E+01 0.54337003634360E-01
[GTO]
    1 0
 s    6 1.00
 0.13575349682000E+05 0.60645503603591E-03
 0.20352333680000E+04 0.46979088884982E-02
 0.46322562359000E+03 0.24332477647552E-01
 0.13120019598000E+03 0.97399968307759E-01
 0.42853015891000E+02 0.30195584253780E+00
 0.15584185766000E+02 0.66233609137875E+00
 s    2 1.00
 0.62067138508000E+01 0.65595308539952E+00
 0.25764896527000E+01 0.37585633285142E+00
 s    1 1.00
 0.57696339419000E+00 0.10000000000000E+01
 s    1 1.00
 0.22972831358000E+00 0.10000000000000E+01
 s    1 1.00
 0.95164440028000E-01 0.10000000000000E+01
 p    4 1.00
 0.34697232244000E+02 0.11327220003114E-01
 0.79582622826000E+01 0.76169659202087E-01
 0.23780826883000E+01 0.30192252202676E+00
 0.81433208183000E+00 0.72785027349547E+00
 p    1 1.00
 0.28887547253000E+00 0.10000000000000E+01
 p    1 1.00
 0.10056823671000E+00 0.10000000000000E+01
 d    1 1.00
 0.10970000000000E+01 0.10000000000000E+01
 d    1 1.00
 0.31800000000000E+00 0.10000000000000E+01
 f    1 1.00
 0.76100000000000E+00 0.10000000000000E+01
 
    2 0
 s    6 1.00
 0.27032382631000E+05 0.57227335211155E-03
 0.40523871392000E+04 0.44353233492995E-02
 0.92232722710000E+03 0.23020107706038E-01
 0.26124070989000E+03 0.92822490667928E-01
 0.85354641351000E+02 0.29378500009671E+00
 0.31035035245000E+02 0.67401604501641E+00
 s    2 1.00
 0.12260860728000E+02 0.63839937025506E+00
 0.49987076005000E+01 0.39534587125718E+00
 s    1 1.00
 0.11703108158000E+01 0.10000000000000E+01
 s    1 1.00
 0.46474740994000E+00 0.10000000000000E+01
 s    1 1.00
 0.18504536357000E+00 0.10000000000000E+01
 p    4 1.00
 0.63274954801000E+02 0.12018332222616E-01
 0.14627049379000E+02 0.83005421790056E-01
 0.44501223456000E+01 0.31991743925964E+00
 0.15275799647000E+01 0.70715542916104E+00
 p    1 1.00
 0.52935117943000E+00 0.10000000000000E+01
 p    1 1.00
 0.17478421270000E+00 0.10000000000000E+01
 d    1 1.00
 0.23140000000000E+01 0.10000000000000E+01
 d    1 1.00
 0.64500000000000E+00 0.10000000000000E+01
 f    1 1.00
 0.14280000000000E+01 0.10000000000000E+01
 
    3 0
 s    6 1.00
 0.13575349682000E+05 0.60645503603591E-03
 0.20352333680000E+04 0.46979088884982E-02
 0.46322562359000E+03 0.24332477647552E-01
 0.13120019598000E+03 0.97399968307759E-01
 0.42853015891000E+02 0.30195584253780E+00
 0.15584185766000E+02 0.66233609137875E+00
 s    2 1.00
 0.62067138508000E+01 0.65595308539952E+00
 0.25764896527000E+01 0.37585633285142E+00
 s    1 1.00
 0.57696339419000E+00 0.10000000000000E+01
 s    1 1.00
 0.22972831358000E+00 0.10000000000000E+01
 s    1 1.00
 0.95164440028000E-01 0.10000000000000E+01
 p    4 1.00
 0.34697232244000E+02 0.11327220003114E-01
 0.79582622826000E+01 0.76169659202087E-01
 0.23780826883000E+01 0.30192252202676E+00
 0.81433208183000E+00 0.72785027349547E+00
 p    1 1.00
 0.28887547253000E+00 0.10000000000000E+01
 p    1 1.00
 0.10056823671000E+00 0.10000000000000E+01
 d    1 1.00
 0.10970000000000E+01 0.10000000000000E+01
 d    1 1.00
 0.31800000000000E+00 0.10000000000000E+01
 f    1 1.00
 0.76100000000000E+00 0.10000000000000E+01
 
    4 0
 s    6 1.00
 0.27032382631000E+05 0.57227335211155E-03
 0.40523871392000E+04 0.44353233492995E-02
 0.92232722710000E+03 0.23020107706038E-01
 0.26124070989000E+03 0.92822490667928E-01
 0.85354641351000E+02 0.29378500009671E+00
 0.31035035245000E+02 0.67401604501641E+00
 s    2 1.00
 0.12260860728000E+02 0.63839937025506E+00
 0.49987076005000E+01 0.39534587125718E+00
 s    1 1.00
 0.11703108158000E+01 0.10000000000000E+01
 s    1 1.00
 0.46474740994000E+00 0.10000000000000E+01
 s    1 1.00
 0.18504536357000E+00 0.10000000000000E+01
 p    4 1.00
 0.63274954801000E+02 0.12018332222616E-01
 0.14627049379000E+02 0.83005421790056E-01
 0.44501223456000E+01 0.31991743925964E+00
 0.15275799647000E+01 0.70715542916104E+00
 p    1 1.00
 0.52935117943000E+00 0.10000000000000E+01
 p    1 1.00
 0.17478421270000E+00 0.10000000000000E+01
 d    1 1.00
 0.23140000000000E+01 0.10000000000000E+01
 d    1 1.00
 0.64500000000000E+00 0.10000000000000E+01
 f    1 1.00
 0.14280000000000E+01 0.10000000000000E+01
 
    5 0
 s    6 1.00
 0.13575349682000E+05 0.60645503603591E-03
 0.20352333680000E+04 0.46979088884982E-02
 0.46322562359000E+03 0.24332477647552E-01
 0.13120019598000E+03 0.97399968307759E-01
 0.42853015891000E+02 0.30195584253780E+00
 0.15584185766000E+02 0.66233609137875E+00
 s    2 1.00
 0.62067138508000E+01 0.65595308539952E+00
 0.25764896527000E+01 0.37585633285142E+00
 s    1 1.00
 0.57696339419000E+00 0.10000000000000E+01
 s    1 1.00
 0.22972831358000E+00 0.10000000000000E+01
 s    1 1.00
 0.95164440028000E-01 0.10000000000000E+01
 p    4 1.00
 0.34697232244000E+02 0.11327220003114E-01
 0.79582622826000E+01 0.76169659202087E-01
 0.23780826883000E+01 0.30192252202676E+00
 0.81433208183000E+00 0.72785027349547E+00
 p    1 1.00
 0.28887547253000E+00 0.10000000000000E+01
 p    1 1.00
 0.10056823671000E+00 0.10000000000000E+01
 d    1 1.00
 0.10970000000000E+01 0.10000000000000E+01
 d    1 1.00
 0.31800000000000E+00 0.10000000000000E+01
 f    1 1.00
 0.76100000000000E+00 0.10000000000000E+01
 
    6 0
 s    6 1.00
 0.13575349682000E+05 0.60645503603591E-03
 0.20352333680000E+04 0.46979088884982E-02
 0.46322562359000E+03 0.24332477647552E-01
 0.13120019598000E+03 0.97399968307759E-01
 0.42853015891000E+02 0.30195584253780E+00
 0.15584185766000E+02 0.66233609137875E+00
 s    2 1.00
 0.62067138508000E+01 0.65595308539952E+00
 0.25764896527000E+01 0.37585633285142E+00
 s    1 1.00
 0.57696339419000E+00 0.10000000000000E+01
 s    1 1.00
 0.22972831358000E+00 0.10000000000000E+01
 s    1 1.00
 0.95164440028000E-01 0.10000000000000E+01
 p    4 1.00
 0.34697232244000E+02 0.11327220003114E-01
 0.79582622826000E+01 0.76169659202087E-01
 0.23780826883000E+01 0.30192252202676E+00
 0.81433208183000E+00 0.72785027349547E+00
 p    1 1.00
 0.28887547253000E+00 0.10000000000000E+01
 p    1 1.00
 0.10056823671000E+00 0.10000000000000E+01
 d    1 1.00
 0.10970000000000E+01 0.10000000000000E+01
 d    1 1.00
 0.31800000000000E+00 0.10000000000000E+01
 f    1 1.00
 0.76100000000000E+00 0.10000000000000E+01
 
    7 0
 s    6 1.00
 0.19730800647000E+05 0.58626402628763E-03
 0.29578958745000E+04 0.45428820586397E-02
 0.67322133595000E+03 0.23558413450084E-01
 0.19068249494000E+03 0.94709193292923E-01
 0.62295441898000E+02 0.29719784913376E+00
 0.22654161182000E+02 0.66916246895232E+00
 s    2 1.00
 0.89791477428000E+01 0.64596683630063E+00
 0.36863002370000E+01 0.38700574393705E+00
 s    1 1.00
 0.84660076805000E+00 0.10000000000000E+01
 s    1 1.00
 0.33647133771000E+00 0.10000000000000E+01
 s    1 1.00
 0.13647653675000E+00 0.10000000000000E+01
 p    4 1.00
 0.49200380510000E+02 0.11448825101764E-01
 0.11346790537000E+02 0.78422337970864E-01
 0.34273972411000E+01 0.30818094738830E+00
 0.11785525134000E+01 0.72027196368413E+00
 p    1 1.00
 0.41642204972000E+00 0.10000000000000E+01
 p    1 1.00
 0.14260826011000E+00 0.10000000000000E+01
 d    1 1.00
 0.16540000000000E+01 0.10000000000000E+01
 d    1 1.00
 0.46900000000000E+00 0.10000000000000E+01
 f    1 1.00
 0.10930000000000E+01 0.10000000000000E+01
 
    8 0
 s    3 1.00
 0.34061341000000E+02 0.25439307208879E-01
 0.51235746000000E+01 0.19008594890375E+00
 0.11646626000000E+01 0.85244113011042E+00
 s    1 1.00
 0.32723041000000E+00 0.10000000000000E+01
 s    1 1.00
 0.10307241000000E+00 0.10000000000000E+01
 p    1 1.00
 0.80000000000000E+00 0.10000000000000E+01
 
    9 0
 s    3 1.00
 0.34061341000000E+02 0.25439307208879E-01
 0.51235746000000E+01 0.19008594890375E+00
 0.11646626000000E+01 0.85244113011042E+00
 s    1 1.00
 0.32723041000000E+00 0.10000000000000E+01
 s    1 1.00
 0.10307241000000E+00 0.10000000000000E+01
 p    1 1.00
 0.80000000000000E+00 0.10000000000000E+01
 
   10 0
 s    3 1.00
 0.34061341000000E+02 0.25439307208879E-01
 0.51235746000000E+01 0.19008594890375E+00
 0.11646626000000E+01 0.85244113011042E+00
 s    1 1.00
 0.32723041000000E+00 0.10000000000000E+01
 s    1 1.00
 0.10307241000000E+00 0.10000000000000E+01
 p    1 1.00
 0.80000000000000E+00 0.10000000000000E+01
 
   11 0
 s    3 1.00
 0.34061341000000E+02 0.25439307208879E-01
 0.51235746000000E+01 0.19008594890375E+00
 0.11646626000000E+01 0.85244113011042E+00
 s    1 1.00
 0.32723041000000E+00 0.10000000000000E+01
 s    1 1.00
 0.10307241000000E+00 0.10000000000000E+01
 p    1 1.00
 0.80000000000000E+00 0.10000000000000E+01
 
   12 0
 s    3 1.00
 0.34061341000000E+02 0.25439307208879E-01
 0.51235746000000E+01 0.19008594890375E+00
 0.11646626000000E+01 0.85244113011042E+00
 s    1 1.00
 0.32723041000000E+00 0.10000000000000E+01
 s    1 1.00
 0.10307241000000E+00 0.10000000000000E+01
 p    1 1.00
 0.80000000000000E+00 0.10000000000000E+01
 
   13 0
 s    3 1.00
 0.34061341000000E+02 0.25439307208879E-01
 0.51235746000000E+01 0.19008594890375E+00
 0.11646626000000E+01 0.85244113011042E+00
 s    1 1.00
 0.32723041000000E+00 0.10000000000000E+01
 s    1 1.00
 0.10307241000000E+00 0.10000000000000E+01
 p    1 1.00
 0.80000000000000E+00 0.10000000000000E+01
 
   14 0
 s    3 1.00
 0.34061341000000E+02 0.25439307208879E-01
 0.51235746000000E+01 0.19008594890375E+00
 0.11646626000000E+01 0.85244113011042E+00
 s    1 1.00
 0.32723041000000E+00 0.10000000000000E+01
 s    1 1.00
 0.10307241000000E+00 0.10000000000000E+01
 p    1 1.00
 0.80000000000000E+00 0.10000000000000E+01
 
   15 0
 s    3 1.00
 0.34061341000000E+02 0.25439307208879E-01
 0.51235746000000E+01 0.19008594890375E+00
 0.11646626000000E+01 0.85244113011042E+00
 s    1 1.00
 0.32723041000000E+00 0.10000000000000E+01
 s    1 1.00
 0.10307241000000E+00 0.10000000000000E+01
 p    1 1.00
 0.80000000000000E+00 0.10000000000000E+01
 
   16 0
 s    3 1.00
 0.34061341000000E+02 0.25439307208879E-01
 0.51235746000000E+01 0.19008594890375E+00
 0.11646626000000E+01 0.85244113011042E+00
 s    1 1.00
 0.32723041000000E+00 0.10000000000000E+01
 s    1 1.00
 0.10307241000000E+00 0.10000000000000E+01
 p    1 1.00
 0.80000000000000E+00 0.10000000000000E+01
 
[MO]
 Sym=     1a   
 Ene= -.19169791388266E+02
 Spin= Alpha
 Occup= 2.000000
     1 0.27002372821656E-04
     2 -.13590712451581E-03
     3 -.17588196946727E-02
     4 0.70978442706066E-02
     5 -.33392392541496E-02
     6 0.17770820107961E-03
     7 -.61984824105766E-04
     8 -.46283282665037E-04
     9 -.50276425597776E-02
    10 0.17876876591196E-02
    11 0.13866259070205E-02
    12 -.22199852395090E-03
    13 0.36435584393604E-03
    14 0.19396075703639E-03
    15 0.23636636785334E-03
    16 -.11037096706739E-03
    17 -.12599540078596E-03
    18 -.12531645376204E-03
    19 -.10318708020637E-03
    20 0.36737271625788E-04
    21 0.13699641652864E-02
    22 -.61684238639638E-03
    23 -.75312177889004E-03
    24 -.77397392003046E-03
    25 -.60314304459770E-03
    26 0.28711261224171E-03
    27 -.14461861363083E-03
    28 -.73183172590978E-04
    29 -.59714194270213E-04
    30 0.86256834450032E-04
    31 0.12788145363789E-03
    32 0.10247812127795E-03
    33 0.10776939608416E-03
    34 -.29695924404374E-04
    35 -.22363122712058E-04
    36 -.51793526716515E-04
    37 0.43511350064731E+00
    38 0.63938845855949E+00
    39 0.37643630329773E-01
    40 -.32106764780448E-01
    41 0.78006182199897E-02
    42 0.22915952649346E-03
    43 -.15773497421892E-02
    44 -.11481155632100E-02
    45 0.21425607119687E-03
    46 0.42739417680917E-02
    47 0.30808665655646E-02
    48 -.19553613445746E-02
    49 0.51668930458549E-04
    50 0.14764769963684E-03
    51 0.20466740348531E-03
    52 -.83583066995454E-04
    53 -.12108433648985E-03
    54 0.43714999282103E-04
    55 0.24339673543628E-04
    56 0.61053291463925E-04
    57 -.11668921141777E-02
    58 0.46450530645555E-03
    59 0.70238680772211E-03
    60 -.26664050101807E-03
    61 -.14644646902759E-03
    62 -.39810773379358E-03
    63 -.52596027609558E-04
    64 -.48087817568155E-04
    65 -.45791802832935E-04
    66 0.43165252189409E-04
    67 0.79279488479201E-04
    68 0.60467672417361E-04
    69 0.27399723659448E-04
    70 -.14762911096000E-04
    71 0.96847795066524E-06
    72 0.18705122797633E-04
    73 0.42832930587164E-04
    74 -.23134645563177E-03
    75 -.19606070770243E-03
    76 0.19321018866356E-02
    77 -.20275724311673E-02
    78 -.33261454279537E-04
    79 0.43187099473760E-04
    80 0.29445410216169E-04
    81 0.65968708582831E-02
    82 0.39947201537378E-02
    83 0.27856895880977E-02
    84 -.32889021234323E-02
    85 -.32210117785170E-02
    86 -.22531068961512E-02
    87 0.16242104417533E-03
    88 -.47043488295185E-04
    89 -.11537755588014E-03
    90 0.20686125211710E-03
    91 0.13861004421031E-03
    92 0.10458641053109E-03
    93 -.10349933863875E-03
    94 0.26935236072178E-03
    95 -.16585302208302E-03
    96 0.20999512656613E-02
    97 0.15680963855777E-02
    98 0.62618599915717E-03
    99 0.65719007404824E-04
   100 -.64174534227994E-04
   101 -.10452498357075E-03
   102 -.18534079667262E-04
   103 0.64360288540371E-04
   104 0.36461486980176E-04
   105 -.69637221115337E-04
   106 0.21738884034538E-04
   107 0.10377349418656E-03
   108 0.80694732124147E-04
   109 -.28919518745308E-04
   110 -.36505028786477E-04
   111 -.23735152989571E-03
   112 0.17689085230760E-02
   113 -.12271438498342E-02
   114 -.38654657318288E-04
   115 0.40251010517350E-04
   116 0.25663373803094E-04
   117 0.36419144556347E-03
   118 0.45002071499958E-03
   119 0.35692461869057E-03
   120 0.94027554627487E-03
   121 0.39017677655040E-03
   122 0.22100448380121E-03
   123 0.24065519436346E-04
   124 -.49055040870793E-05
   125 -.19160015349266E-04
   126 -.85948950402617E-05
   127 -.10925997158337E-04
   128 0.30722962897504E-04
   129 -.15114742291867E-03
   130 0.73067049136617E-04
   131 0.78080373782056E-04
   132 0.72812361725575E-04
   133 0.69081914835966E-04
   134 -.10400757383284E-04
   135 0.89872248569243E-06
   136 0.57061047813536E-05
   137 0.88491529598247E-05
   138 -.28456223275939E-05
   139 -.72137720778176E-05
   140 -.55633347198576E-05
   141 0.16398595850444E-05
   142 -.44177082888836E-06
   143 -.63090498170192E-05
   144 -.72159517439914E-05
   145 0.13983877572281E-04
   146 -.67412045950122E-04
   147 0.27120676150816E-04
   148 0.37791683801940E-02
   149 -.24598820575536E-02
   150 0.81637402799713E-04
   151 0.25194130993151E-04
   152 -.14772008011789E-04
   153 0.21896632913459E-02
   154 -.97097043819627E-03
   155 -.72837992746863E-03
   156 0.37229114162039E-03
   157 0.16600607786732E-03
   158 -.65527865441928E-03
   159 0.75443649816472E-04
   160 -.23653685685818E-04
   161 -.51789964130655E-04
   162 0.19720190689597E-04
   163 0.91813348599357E-05
   164 0.21928910578537E-04
   165 -.15735768855425E-03
   166 -.25845571152626E-04
   167 0.18320325970687E-03
   168 -.62900619544348E-03
   169 -.48556262907040E-03
   170 0.21494018584747E-04
   171 -.23514111825782E-04
   172 0.31125714311751E-04
   173 0.20778199362912E-04
   174 0.15431913820625E-04
   175 -.45384074973907E-04
   176 -.36624296599977E-04
   177 0.16115577663163E-04
   178 0.36245471443183E-05
   179 0.87474168646684E-05
   180 0.15273080092947E-04
   181 0.62532704811063E-05
   182 -.31452697591770E-04
   183 0.26376668172711E-03
   184 0.68890566595744E-03
   185 -.18920057922708E-02
   186 0.10025391329253E-03
   187 0.43938937552157E-05
   188 -.79603591067689E-05
   189 0.20167679588128E-03
   190 0.31471454474898E-03
   191 0.32159301971458E-03
   192 -.14213460270485E-02
   193 0.12698185567014E-03
   194 0.11279416382959E-03
   195 0.76109427468912E-04
   196 -.33214232497228E-04
   197 -.42895194971684E-04
   198 -.56614923103880E-05
   199 0.38308129354901E-05
   200 -.96694457355617E-05
   201 -.43429174684927E-03
   202 0.12133292036138E-03
   203 0.31295882648789E-03
   204 0.75295868875887E-04
   205 0.98141021511235E-04
   206 0.84353334750863E-04
   207 -.30907402513728E-06
   208 0.79134965451992E-05
   209 0.27188396461517E-05
   210 -.40108603530417E-05
   211 -.14087091926157E-04
   212 -.64471890948811E-05
   213 0.44255266712135E-05
   214 0.34700221972914E-05
   215 0.27994829336511E-05
   216 0.79560522485595E-06
   217 -.50771059148690E-07
   218 0.34458556834627E-06
   219 -.40462926843629E-04
   220 0.29888780553664E-03
   221 -.41321660450993E-04
   222 0.70828046373257E-05
   223 0.17463612445128E-04
   224 0.26117269064619E-04
   225 0.10137457975677E-03
   226 -.19868260957476E-03
   227 -.23337819117154E-03
   228 0.67471926770623E-04
   229 0.43193201711104E-04
   230 0.96638481028132E-04
   231 0.88187330330725E-05
   232 -.50921201123635E-05
   233 -.37266129207090E-05
   234 -.16067511114597E-05
   235 -.14344543157469E-05
   236 -.63005039819763E-05
   237 -.36612882338181E-04
   238 0.34236377699137E-05
   239 0.33189244568268E-04
   240 -.11825768013471E-04
   241 -.39657467521519E-04
   242 0.62557772507549E-04
   243 -.58304142038421E-05
   244 -.30032089142607E-06
   245 0.10296375315528E-05
   246 0.20352894637801E-05
   247 0.27861771452767E-05
   248 -.30181736337294E-06
   249 0.57870320342826E-05
   250 -.23832543883015E-05
   251 -.10795863442693E-05
   252 0.12645488362118E-05
   253 0.48063523872492E-04
   254 0.36737378376187E-03
   255 0.10423677110337E-02
   256 0.51132332037438E-04
   257 -.60252828616018E-05
   258 -.79521071656611E-04
   259 0.50464009680069E-04
   260 -.21622326645792E-03
   261 0.63982026662078E-03
   262 0.32791797222561E-03
   263 0.24392546752238E-04
   264 0.10462504522153E-04
   265 0.48484968723143E-04
   266 0.36795486193096E-03
   267 0.11310089160957E-02
   268 0.45119595572265E-04
   269 -.76039724709850E-04
   270 0.17778311276208E-04
   271 -.42682086768835E-05
   272 0.32081323695340E-05
   273 0.82438286915411E-03
   274 0.74070826017141E-04
   275 0.52714751326103E-04
   276 0.44855006609253E-04
   277 -.88727638662218E-04
   278 -.13509869055659E-03
   279 0.14897008435420E-02
   280 0.32791257794085E-04
   281 0.26306827638818E-05
   282 0.61200438280699E-04
   283 -.41698470506529E-04
   284 -.68047818148431E-04
   285 0.22075128688506E-03
   286 0.47140890182757E-04
   287 0.13856942195780E-04
   288 -.21101226973778E-04
   289 -.18931936746038E-04
   290 0.22021352669228E-03
   291 0.15136586005306E-03
   292 0.37710874553640E-04
   293 0.31905008740383E-04
   294 -.12581193554159E-04
   295 -.22678236675947E-04
   296 -.30271313127830E-04
   297 -.11565440221533E-03
   298 -.42962564620232E-04
   299 0.13696245563555E-04
   300 0.16067299263141E-04
   301 -.78291473918624E-06
   302 0.80103579335662E-04
   303 -.83292996674377E-04
   304 0.80750564668893E-05
   305 -.27986389279593E-04
   306 -.47136831621421E-06
 Sym=     2a   
 Ene= -.19111112402277E+02
 Spin= Alpha
 Occup= 2.000000
     1 0.60350922588457E-05
     2 -.29185147395478E-04
     3 0.22131098004469E-03
     4 -.45547154642593E-03
     5 -.37179900528748E-02
     6 -.14684217702564E-03
     7 -.12635774134072E-04
     8 -.96022528032153E-05
     9 0.50672530650139E-03
    10 -.19731463813962E-03
    11 -.15293789279485E-03
    12 0.66486375267557E-04
    13 -.13635134491810E-03
    14 -.10354756500828E-03
    15 0.21994202356399E-04
    16 -.64525113200468E-05
    17 -.15541691036352E-04
    18 0.22043571884789E-04
    19 0.16744149788440E-04
    20 0.16854707903884E-04
    21 -.11286458815831E-03
    22 0.24472829706709E-04
    23 0.88391758451602E-04
    24 -.13308212935674E-03
    25 -.94610859763681E-04
    26 -.96733547081088E-04
    27 -.26928848745323E-06
    28 -.48788186818055E-05
    29 -.78507310193904E-05
    30 -.16991572521113E-05
    31 0.58016889576418E-05
    32 0.47862789402375E-05
    33 0.20604456702134E-05
    34 0.74393317580608E-06
    35 0.57465819992164E-05
    36 -.55356410689737E-05
    37 0.28733472142738E-04
    38 0.44381309888770E-04
    39 -.19753037544154E-03
    40 0.14550145471617E-02
    41 -.10444625921649E-02
    42 -.47889711544054E-04
    43 -.19230192417183E-05
    44 0.68584384368340E-06
    45 -.11726257707286E-03
    46 -.49622478812501E-03
    47 -.37324849292647E-03
    48 0.19477038317481E-02
    49 -.69881655695658E-03
    50 -.58845858327414E-03
    51 0.41833521255579E-04
    52 -.14378572306759E-04
    53 -.27454948948821E-04
    54 0.11558988824232E-04
    55 0.40747088925175E-05
    56 0.23583150947289E-04
    57 -.19636405475278E-03
    58 0.92667447985859E-04
    59 0.10369660676692E-03
    60 0.26338916715377E-04
    61 0.37498137558882E-04
    62 -.15705032604345E-04
    63 0.15980965104058E-04
    64 -.98734823860683E-06
    65 -.11333042886864E-04
    66 -.86383347400863E-05
    67 -.77911614838861E-05
    68 -.76873016166134E-05
    69 -.12802379851149E-04
    70 0.91158281512798E-05
    71 0.22892174188783E-04
    72 0.66481308992032E-05
    73 0.40748707104786E-04
    74 -.24749176614659E-03
    75 0.51521108136828E-03
    76 0.55025169256411E-02
    77 0.86840753382867E-03
    78 0.59269492181653E-04
    79 -.61766198441423E-03
    80 -.44284256723655E-03
    81 0.20113690936811E-02
    82 -.64935318211900E-02
    83 -.50839457663040E-02
    84 -.22203977295050E-02
    85 0.66949103322900E-02
    86 0.49974401594495E-02
    87 -.84867898280580E-04
    88 0.84667478001890E-04
    89 0.20042027868989E-06
    90 -.53615407554069E-04
    91 -.59684386887345E-04
    92 0.19802451173237E-03
    93 -.18504215945174E-02
    94 0.14626440657258E-02
    95 0.38777752879156E-03
    96 -.79350173688940E-03
    97 -.48858544167474E-03
    98 0.21981395280012E-02
    99 0.12439836486066E-04
   100 0.42209535064189E-04
   101 0.59167450377069E-04
   102 -.16610653327665E-04
   103 -.47704530422627E-04
   104 -.38805611571559E-04
   105 -.79138679431093E-07
   106 -.89255033986854E-05
   107 -.40575853087523E-04
   108 -.25594183825325E-05
   109 0.43508323234035E+00
   110 0.63947561928556E+00
   111 0.36847484939908E-01
   112 -.32317145168628E-01
   113 0.13849006658716E-01
   114 -.31799702657976E-03
   115 0.17781782671550E-02
   116 0.13552380616533E-02
   117 0.10117749968368E-02
   118 -.53128902716838E-02
   119 -.40538979436512E-02
   120 -.26417805743050E-04
   121 0.76788718231990E-03
   122 0.58215862976950E-03
   123 -.11545905861436E-03
   124 0.88663236314082E-04
   125 0.26795822300276E-04
   126 -.45380198656898E-04
   127 -.33004240276089E-04
   128 0.13194790133623E-03
   129 0.50608549014178E-03
   130 -.41962309171439E-03
   131 -.86462398427383E-04
   132 0.20718980363268E-03
   133 0.15061348226852E-03
   134 -.70577162592119E-03
   135 -.90728921000846E-05
   136 -.19663442264508E-05
   137 0.19403633295649E-04
   138 0.98361970812933E-05
   139 0.23564334769445E-04
   140 0.17505162269701E-04
   141 0.23363650116927E-05
   142 -.20926207154940E-04
   143 -.43537868105431E-04
   144 0.13758792596063E-04
   145 0.20097094227776E-04
   146 -.97928202563686E-04
   147 0.58491188783362E-03
   148 -.27182714987589E-03
   149 -.22948313675620E-02
   150 0.45364907489836E-04
   151 -.62353072061361E-04
   152 -.83973079145567E-04
   153 0.17178326937420E-02
   154 -.48335962667521E-03
   155 0.22267135243777E-03
   156 -.39291042609398E-02
   157 -.94028382774304E-03
   158 0.15011970961560E-03
   159 0.59884212090285E-04
   160 -.14967716593828E-04
   161 -.44916495496457E-04
   162 -.25907006220908E-04
   163 -.37064235103373E-04
   164 0.47901869349498E-04
   165 -.59211649381574E-03
   166 0.11276313457147E-03
   167 0.47935335924427E-03
   168 -.59004972261829E-03
   169 -.41038698337401E-03
   170 -.23304934413124E-03
   171 -.24183631795860E-04
   172 0.12091149657733E-04
   173 0.66510698952031E-05
   174 0.13453144869403E-04
   175 -.14571537798888E-04
   176 -.14513252479400E-04
   177 0.18992601913618E-04
   178 -.16504417376008E-05
   179 0.55899058341340E-05
   180 -.29185604220563E-07
   181 0.14971634359089E-05
   182 -.57918860544916E-05
   183 -.14596579174421E-03
   184 0.19279010800029E-02
   185 -.67922950730626E-02
   186 0.75815265755196E-05
   187 -.30624304136966E-04
   188 -.23332339632026E-04
   189 0.12080328120027E-02
   190 0.66980907145434E-03
   191 0.76221647806335E-03
   192 0.30423024490926E-03
   193 0.18323960886073E-04
   194 -.68079305083250E-03
   195 0.56078923410527E-04
   196 -.25090071114310E-04
   197 -.30988852296217E-04
   198 -.83850947569761E-05
   199 -.11096530264630E-06
   200 -.86691114429684E-05
   201 -.19001809532124E-03
   202 0.45457308463741E-04
   203 0.14456078685750E-03
   204 0.23753830483685E-03
   205 0.32259633706367E-03
   206 0.24328947614666E-03
   207 0.16044881577322E-04
   208 -.25624827030837E-05
   209 -.39262761991519E-05
   210 -.15607102840765E-04
   211 -.44848630973342E-05
   212 0.72845898589830E-06
   213 -.59193646979306E-05
   214 0.79227944064918E-05
   215 0.45391933019476E-05
   216 0.19936508158390E-04
   217 0.54676758172818E-06
   218 -.31121733826939E-05
   219 -.24519695039195E-04
   220 0.19340572359608E-03
   221 0.18377021763693E-02
   222 -.55172393517063E-05
   223 0.89526267311981E-05
   224 0.18709392656493E-04
   225 0.16234581590570E-03
   226 -.16052285782132E-03
   227 -.20097958044968E-03
   228 0.17068920497757E-03
   229 -.66581110350429E-03
   230 -.50858961308490E-03
   231 0.11430903257521E-04
   232 -.61566475767450E-05
   233 -.52742556807760E-05
   234 0.44681311138928E-05
   235 0.76058469684534E-05
   236 -.90247113024266E-05
   237 -.28896072017771E-04
   238 0.67429122299590E-05
   239 0.22153159787812E-04
   240 -.48643010741497E-04
   241 -.76007629595609E-04
   242 0.65981174353435E-04
   243 -.56902538630840E-05
   244 0.83752131121769E-06
   245 0.23429218438927E-05
   246 0.22625476145905E-05
   247 -.17399091057406E-05
   248 -.30616659426584E-05
   249 0.53717290536614E-05
   250 0.61625635504808E-06
   251 -.81693562689534E-07
   252 0.25176823017749E-05
   253 -.41323327293673E-04
   254 0.96250184559013E-04
   255 0.10654671835299E-02
   256 -.91949934259081E-04
   257 -.45232937006607E-04
   258 -.34605797934002E-04
   259 -.14883117523699E-04
   260 0.48262851040851E-03
   261 0.73096716345533E-03
   262 -.68861437212502E-05
   263 -.40137655223818E-04
   264 -.27285328120127E-04
   265 -.44565969354115E-04
   266 0.10561086310566E-03
   267 0.10937481842119E-02
   268 -.98694472029540E-04
   269 -.45195841783046E-04
   270 -.36586958192843E-04
   271 0.57301143115271E-05
   272 -.14211796938363E-03
   273 0.86202735789112E-04
   274 0.19164218503586E-04
   275 0.49183759431150E-04
   276 0.11821999933406E-03
   277 -.52241909858603E-04
   278 -.10742849837693E-02
   279 -.22908978863477E-03
   280 -.87349951879455E-04
   281 0.58373718671196E-04
   282 0.18334939746200E-03
   283 -.39743565229639E-04
   284 0.26471409181126E-03
   285 0.12209813537112E-02
   286 0.11345260582066E-03
   287 0.36720165999099E-06
   288 0.55570660647412E-04
   289 -.16767960686907E-04
   290 0.36417523808910E-03
   291 0.15794775110558E-02
   292 0.67147145927666E-04
   293 0.47184362513060E-04
   294 0.80177738940824E-05
   295 0.34468441558693E-04
   296 -.30478675700631E-03
   297 -.73450616780704E-04
   298 -.36147135650533E-04
   299 0.19040501448679E-05
   300 -.35864966456780E-05
   301 -.91057924601542E-05
   302 0.87458288367976E-04
   303 0.13815260170578E-03
   304 0.13882367492028E-04
   305 -.89964731733199E-05
   306 0.37700778417213E-05
 Sym=     3a   
 Ene= -.14295635818223E+02
 Spin= Alpha
 Occup= 2.000000
     1 -.12340525585529E-07
     2 0.18408686912338E-06
     3 -.62551229881450E-04
     4 0.40505095560332E-03
     5 -.12943355738007E-02
     6 0.66060319326456E-05
     7 0.51121227573090E-05
     8 0.56031201542917E-05
     9 -.71665464010843E-04
    10 -.84870718081939E-04
    11 -.70295702514708E-04
    12 0.72378762877750E-03
    13 0.54388702061285E-03
    14 0.33058613291662E-03
    15 -.31514640328295E-07
    16 -.24492441884491E-05
    17 0.24807588287774E-05
    18 0.46956990077817E-05
    19 0.78901836400146E-06
    20 -.51375729083262E-05
    21 -.28530644179824E-04
    22 0.15281680919835E-04
    23 0.13248963259989E-04
    24 -.59071209406247E-04
    25 -.28454712560834E-04
    26 -.57985247411171E-05
    27 0.34524453155335E-06
    28 -.20794068016477E-05
    29 -.32608239123649E-05
    30 -.14121937816754E-05
    31 0.17344898559923E-05
    32 0.10229993083361E-05
    33 0.94899963682736E-06
    34 0.10553271208235E-05
    35 0.33518550500866E-05
    36 -.46454824841182E-05
    37 0.38063365423534E-07
    38 0.14105939380579E-06
    39 -.59285529699625E-05
    40 0.99742095285813E-04
    41 -.86601819168560E-04
    42 -.58596298923887E-05
    43 0.21825709016257E-04
    44 0.22235495520881E-04
    45 0.21866724917197E-04
    46 -.15277935177216E-03