
 rdgrad (DESKTOP-T8QF9C0) : TURBOMOLE V7-8-1 24 Jan 2024 at 10:18:17 compiled  Jan 2024
 Copyright (C) 2024 TURBOMOLE GmbH, Karlsruhe


    2026-03-20 21:31:10.279 



                                 r d g r a d

                          gradient for ridft program 

                        by K.Eichkorn, O.Treutler, H.Oehm, 
                             M.Haeser and R.Ahlrichs
                  (Chemical Physics Letters 242 (1995) 652-660)
                    parallel version: M.v.Arnim  &  R.Ahlrichs
                            quantum chemistry group
                             university  karlsruhe
                                   germany




                          References             
                                                 
          Density Functional:                              
              O. Treutler and R. Ahlrichs                      
              Efficient Molecular Numerical Integration Schemes
              J. Chem. Phys. 102: 346 (1995)                   
          Parallel Version:                                
              Performance of parallel TURBOMOLE for Density    
              Functional Calculations                          
              M. v. Arnim and R. Ahlrichs                      
              J. Comp. Chem. 19: 1746 (1998)                   
          RI-J Method:                                     
              Auxiliary Basis Sets to approximate Coulomb      
              Potentials                                       
              Chem. Phys. Lett. 240: 283 (1995)                
              K. Eichkorn, O. Treutler, H. Oehm, M. Haeser     
              and R. Ahlrichs                                  
              Chem. Phys. Lett. 242: 652 (1995)                
                                                           
              Auxiliary Basis Sets for Main Row Atoms and their
              Use to approximate Coulomb Potentials            
              K. Eichkorn, F. Weigend, O. Treutler and         
              R. Ahlrichs                                      
              Theo. Chem. Acc. 97: 119 (1997)                  
          Relativistic Two-component ECP formalism             
              Efficient two-component self-consistent field    
              procedures and gradients: implementation in      
              TURBOMOLE and application to Au20-               
              A. Baldes and F. Weigend                         
              Mol. Phys. 111: 2617 (2013)                      
          Relativistic all-electron 2c calculations (X2C, DLU) 
              Efficient implementation of one- and two-component
              analytical energy gradients in exact two-component
              theory                                           
              Y. J. Franzke, N. Middendorf and F. Weigend      
              J. Chem. Phys. 148: 104110 (2018)                
          Exploitation of symmetry in scalar X2C response      
              NMR shielding tensors and chemical shifts in     
              scalar-relativistic local exact two-component    
              theory                                           
              Y. J. Franzke and F. Weigend                     
              J. Chem. Theory Comput. 15: 1028 (2019)          
                                                              



 integral neglect threshold       :  0.33E-10
 integral storage threshold THIZE :  0.10E-04
 integral storage threshold THIME :         5

 Becke-3-Parameter hybrid functional: B3-LYP
 exchange:    0.8*LDA + 0.72*B88 + 0.2*HF
 correlation: 0.19*LDA(VWN) + 0.81*LYP
 A Hybrid-DFT calculation using the RI-J approximation will be carried out.
  
  
 AUXILIARY BASIS SET information:

 symmetry group of the molecule :   c1 

 the group has the following generators :
   c1(z)

    1 symmetry operations found

 there are 1 real representations :   a   

 maximum number of shells which are related by symmetry :  1


    mo occupation :
   irrep   mo's   occupied
    a       92        9
 
 number of basis functions   :    92
 number of occupied orbitals :     9
 

 number of off-diagonal lagrangians expected :  0

 biggest AO integral is expected to be     6.862573055
  
           ------------------
           density functional
           ------------------
 Becke-3-Parameter hybrid functional: B3-LYP
 exchange:    0.8*LDA + 0.72*B88 + 0.2*HF
 correlation: 0.19*LDA(VWN) + 0.81*LYP
 iterations will be done with small grid
  
 spherical integration : Lebedev's spherical grid
 spherical gridsize    :                     3
    i.e. gridpoints    :                   302
  maximum batchsize    :                   100
 value for diffuse not defined
 radial integration    : Chebyshev 2nd kind (scaling 3)
 radial gridsize       :                     3
 integration cells     :                     7
 partition function    : becke
 partition sharpness   :                     3
  
  
           ------------------------
             RDGRAD - INFORMATION
           ------------------------
  
 Threshold for integral neglect (rithr1): 1E-10
 Threshold for integral neglect (rithr2): 1E-10
 Contributions to RI integral batches: 
  neglected integral batches:                     2
  direct contribution:                          901
     
 ****************************************
 Memory allocated for RDGRAD: 1 MiB
 ****************************************
                                            
     

 nuclear repulsion energy  :   41.9847218822    

  MOs are in ASCII format !


 reading orbital data $scfmo  from file mos
 orbital characterization : scfconv=7
  Deviation of MOs from orthonormality   1.012127048838352E-010
  W A R N I N G 

    ----------------------------------------
     S+T+V CONTRIBUTIONS TO ENERGY GRADIENT 
    ----------------------------------------

 1e-integral 1st. derivatives will be neglected if expon. factor < 0.656390E-13


 setting up bound for integral derivative estimation

 increment for numerical differentiation : 0.00050000

 biggest AO integral is expected to be     6.862573055
 biggest cartesian 1st derivative AO integral is expected to be    14.065829304

 biggest 1-particle AO density matrix element is expected to be    0.8879673338

 setting up bound for integral derivative estimation

 increment for numerical differentiation : 0.00050000

 biggest AO integral is expected to be     6.862573055
 biggest cartesian 1st derivative AO integral is expected to be    14.065829304

 2e-integral 1st. derivatives will be neglected if expon. factor < 0.100000E-06
 outer boundary for 2e-integral derivative neglection is 0.211376E-07

          Overall gridpoints after grid construction =         30685

 Integrated ground state density     :   17.99999874629881    


          ------------------------------------------------
           cartesian gradient of the energy (hartree/bohr)
          ------------------------------------------------

  ATOM      1 c           2 n           3 h           4 h           5 h 
dE/dx -0.1311403D-03  0.2235222D-04 -0.9204984D-04  0.3783724D-04 -0.9159492D-04
dE/dy  0.1939859D-04  0.7976995D-04 -0.4651095D-04 -0.4468700D-04  0.7425764D-04
dE/dz  0.8397497D-04  0.5488810D-05  0.4427383D-04 -0.8470130D-04 -0.5867495D-05

  ATOM      6 h           7 h 
dE/dx  0.1400352D-03  0.1113212D-03
dE/dy -0.1384307D-04 -0.6961503D-04
dE/dz -0.4382562D-04  0.8168817D-05
 
 resulting FORCE  (fx,fy,fz) = (-.324D-05,-.123D-05,0.751D-05)
 resulting MOMENT (mx,my,mz) = (-.437D-05,-.733D-04,0.537D-04)


 exx =       0.001109 eyy =       0.000182 ezz =       0.000188
 eyz =       0.000097 exz =      -0.000156 exy =      -0.000115


 **********************************************************************
  |maximum component of gradient| : 0.14003515E-03  (atom  6 h )       
   gradient norm                  : 0.32815267E-03
 **********************************************************************
   ***  cartesian gradients written onto <gradient>  ***


     --- calculation of the energy gradient finished ---



    ------------------------------------------------------------------------
         total  cpu-time :   1.36 seconds
         total wall-time :   1.54 seconds
    ------------------------------------------------------------------------

   ****  rdgrad : all done  ****


    2026-03-20 21:31:11.801 

 rdgrad ended normally

 statpt (DESKTOP-T8QF9C0) : TURBOMOLE V7-8-1 24 Jan 2024 at 10:18:17 compiled  Jan 2024
 Copyright (C) 2024 TURBOMOLE GmbH, Karlsruhe


    2026-03-20 21:31:11.889 



                           this is S T A T P T   


                     hessian and coordinate update for
                          stationary point search 

                     by barbara unterreiner, marek sierka,
                           and reinhart ahlrichs

                          quantum chemistry group
                          universitaet  karlsruhe
                                  germany




              +--------------------------------------------------+
              | Atomic coordinate, charge and isotop information |
              +--------------------------------------------------+

                    atomic coordinates            atom    charge  isotop
         -1.08577440   -0.01347362   -0.00920458    c      6.000     0
          1.60334259    0.30523961    0.55251994    n      7.000     0
         -1.97313811   -1.09754844    1.50517797    h      1.000     0
         -1.50546980   -0.96787795   -1.80615132    h      1.000     0
         -1.99638108    1.83729585   -0.04761573    h      1.000     0
          2.48959973   -1.39053213    0.62180067    h      1.000     0
          2.46782106    1.32689669   -0.81652884    h      1.000     0
 
       center of nuclear mass  :    0.28638458    0.12297996    0.22798778
       center of nuclear charge:    0.23284353    0.09800386    0.18161638
  Keyword $statpt not found - using default options
 
        ***************  Stationary point options ******************
        ************************************************************
           Maximum allowed trust radius:           3.000000E-01
           Minimum allowed trust radius:           1.000000E-03
           Initial trust radius:                   1.500000E-01
           GDIIS used if gradient norm <           1.000000E-02
           Number of previous steps for GDIIS:       5
           Hessian update method:                  BFGS
                        *** Convergence criteria ***                
           Threshold for energy change:            1.000000E-06
           Threshold for max displacement element: 1.000000E-03
           Threshold for max gradient element :    1.000000E-03
           Threshold for RMS of displacement:      5.000000E-04
           Threshold for RMS of gradient:          5.000000E-04
        ************************************************************
 

  Keyword $statp missing in file <control>

  Keyword $statpt not found - using default options
  *************************************************************************
   ATOM                      CARTESIAN COORDINATES
    1 c      -1.08577439589017     -0.01347362186688     -0.00920457599523
    2 n       1.60334259014898      0.30523960759492      0.55251993788017
    3 h      -1.97313810837500     -1.09754844353174      1.50517797440587
    4 h      -1.50546979942691     -0.96787795281485     -1.80615132248806
    5 h      -1.99638107794594      1.83729585346996     -0.04761573170196
    6 h       2.48959973154885     -1.39053213011116      0.62180066656582
    7 h       2.46782105994015      1.32689668725966     -0.81652883839273
  *************************************************************************
   ATOM                      CARTESIAN GRADIENTS  
    1 c      -0.00013114026550      0.00001939859115      0.00008397496943
    2 n       0.00002235222394      0.00007976994608      0.00000548880958
    3 h      -0.00009204984271     -0.00004651094889      0.00004427382844
    4 h       0.00003783723761     -0.00004468699667     -0.00008470130406
    5 h      -0.00009159492107      0.00007425764051     -0.00000586749462
    6 h       0.00014003515252     -0.00001384307037     -0.00004382562439
    7 h       0.00011132117807     -0.00006961502860      0.00000816881708
  *************************************************************************

  norm of actual CARTESIAN gradient:  3.28153E-04

  ENERGY =     -95.8357099137 a.u.; # of cycle =    9

  Approximate Hessian read from $hessapprox data section

  Hessian updated according to BFGS formula
  Number of zero Hessian eigenvalues:   6
  Number of structures for GDIIS interpolation:    5
  GDIIS step:     0.001688

      ****************************************************************** 
                          CONVERGENCE INFORMATION

                               Converged?     Value      Criterion
             Energy change         yes      0.0000006   0.0000010
             RMS of displacement   yes      0.0003683   0.0005000
             RMS of gradient       yes      0.0000716   0.0005000
             MAX displacement      yes      0.0007382   0.0010000
             MAX gradient          yes      0.0001400   0.0010000
      ****************************************************************** 


    ------------------------------------------------------------------------
         total  cpu-time :   0.05 seconds
         total wall-time :   0.05 seconds
    ------------------------------------------------------------------------

   ****  statpt : all done  ****


    2026-03-20 21:31:11.919 

  statpt ended normally

 ridft (DESKTOP-T8QF9C0) : TURBOMOLE V7-8-1 24 Jan 2024 at 10:18:17 compiled  Jan 2024
 Copyright (C) 2024 TURBOMOLE GmbH, Karlsruhe


    2026-03-20 21:31:11.997 



                                  r i d f t

                        DFT program with RI approximation 
                                for coulomb part 





                                 References:     
                                                 
          TURBOMOLE:                             
              R. Ahlrichs, M. Baer, M. Haeser, H. Horn, and
              C. Koelmel
              Electronic structure calculations on workstation
              computers: the program system TURBOMOLE
              Chem. Phys. Lett. 162: 165 (1989)
          Density Functional:                              
              O. Treutler and R. Ahlrichs                      
              Efficient Molecular Numerical Integration Schemes
              J. Chem. Phys. 102: 346 (1995)                   
          Parallel Version:                                
              Performance of parallel TURBOMOLE for Density    
              Functional Calculations                          
              M. v. Arnim and R. Ahlrichs                      
              J. Comp. Chem. 19: 1746 (1998)                   
          RI-J Method:                                     
              Auxiliary Basis Sets to approximate Coulomb      
              Potentials                                       
              Chem. Phys. Lett. 240: 283 (1995)                
              K. Eichkorn, O. Treutler, H. Oehm, M. Haeser     
              and R. Ahlrichs                                  
              Chem. Phys. Lett. 242: 652 (1995)                
                                                           
              Auxiliary Basis Sets for Main Row Atoms and their
              Use to approximate Coulomb Potentials            
              K. Eichkorn, F. Weigend, O. Treutler and         
              R. Ahlrichs                                      
              Theo. Chem. Acc. 97: 119 (1997)                  
                                                           
              Accurate Coulomb-fitting basis sets for H to Rn 
              F. Weigend                                       
              Phys. Chem. Chem. Phys. 8: 1057 (2006)           
                                                           
          Multipole accelerated RI-J (MARI-J):             
              Fast evaluation of the Coulomb potential for     
              electron densities using multipole accelerated   
              resolution of identity approximation             
              M. Sierka, A. Hogekamp and R. Ahlrichs           
              J. Chem. Phys. 118: 9136 (2003)                  
          RI-JK Method:                                     
              A fully direct RI-HF algorithm: Implementation,
              optimised auxiliary basis sets, demonstration of
              accuracy and efficiency                         
              F. Weigend                                      
              Phys. Chem. Chem. Phys. 4: 4285 (2002)           
          Two-component HF and DFT with spin-orbit coupling:  
              Self-consistent treatment of spin-orbit         
              interactions with efficient Hartree-Fock and    
              density functional methods                      
              M. K. Armbruster, F. Weigend, C. van Wüllen and 
              W. Klopper                                      
              Phys. Chem. Chem. Phys. 10: 1748 (2008)         
          Two-component difference density and DIIS algorithm 
              Efficient two-component self-consistent field   
              procedures and gradients: implementation in     
              TURBOMOLE and application to Au20-              
              A. Baldes, F. Weigend                           
              Mol. Phys. 111: 2617 (2013)                     
          Relativistic current density functional theory      
              Current density functional framework for        
              spin-orbit coupling                             
              C. Holzer, Y. J. Franzke, A. Pausch             
              J. Chem. Phys. 157: 204102 (2022)               
          Relativistic all-electron 2c calculations           
              An efficient implementation of two-component    
              relativistic exact-decoupling methods for large 
              molecules                                       
              D. Peng, N. Middendorf, F. Weigend, M. Reiher   
              J. Chem. Phys. 138: 184105 (2013)               
          Finite nucleus model and SNSO approximation         
              Efficient implementation of one- and two-       
              component analytical energy gradients in exact  
              two-component theory                            
              Y. J. Franzke, N. Middendorf, F. Weigend        
              J. Chem. Phys. 148: 104110 (2018)               
          Grids for all-electron relativistic methods         
              Error-consistent segmented contracted all-      
              electron relativistic basis sets of double-     
              and triple-zeta quality for NMR shielding       
              constants                                       
              Y. J. Franzke, R. Tress, T. M. Pazdera,         
              F. Weigend                                      
              Phys. Chem. Chem. Phys. 21: 166658 (2019)       
          Seminumerical exchange algorithms                   
              Seminumerical calculation of the Hartree-Fock   
              exchange matirx: Application to two-component   
              procedures and efficient evaluation of local    
              hybrid functionsl                               
              P. Plessow, F. Weigend,                         
              J. Comput. Chem. 33: 810 (2012)                 
          Improved seminumerical algorithms                   
              C. Holzer,                                      
              J. Chem. Phys. 153 (2020), 184115               





              +--------------------------------------------------+
              |      general information about current run       |
              +--------------------------------------------------+

 
 Becke-3-Parameter hybrid functional: B3-LYP
 exchange:    0.8*LDA + 0.72*B88 + 0.2*HF
 correlation: 0.19*LDA(VWN) + 0.81*LYP
 A Hybrid-DFT calculation using the RI-J approximation will be carried out.
 Allocatable memory for RI due to $ricore (MB):                  1000


              +--------------------------------------------------+
              | Atomic coordinate, charge and isotop information |
              +--------------------------------------------------+

                    atomic coordinates            atom    charge  isotop
         -1.08520684   -0.01352001   -0.00942967    c      6.000     0
          1.60347725    0.30499607    0.55250363    n      7.000     0
         -1.97271960   -1.09738620    1.50495026    h      1.000     0
         -1.50572412   -0.96778126   -1.80595734    h      1.000     0
         -1.99597504    1.83696969   -0.04764929    h      1.000     0
          2.48892408   -1.39091319    0.62227791    h      1.000     0
          2.46722427    1.32763489   -0.81669740    h      1.000     0
 
       center of nuclear mass  :    0.28664201    0.12286159    0.22790121
       center of nuclear charge:    0.23304607    0.09790980    0.18154842

              +--------------------------------------------------+
              |               basis set information              |
              +--------------------------------------------------+

              we will work with the 1s 3p 5d 7f 9g ... basis set
              ...i.e. with spherical basis functions...

   type   atoms  prim   cont   basis
   ---------------------------------------------------------------------------
    c        1     46     31   def2-TZVP   [5s3p2d1f|11s6p2d1f]
    n        1     46     31   def2-TZVP   [5s3p2d1f|11s6p2d1f]
    h        5      8      6   def2-TZVP   [3s1p|5s1p]
   ---------------------------------------------------------------------------
   total:    7    132     92
   ---------------------------------------------------------------------------

   total number of primitive shells          :   46
   total number of contracted shells         :   42
   total number of cartesian basis functions :  102
   total number of SCF-basis functions       :   92


 integral neglect threshold       :  0.33E-10
 integral storage threshold THIZE :  0.10E-04
 integral storage threshold THIME :         5

 RI-J AUXILIARY BASIS SET information:

              we will work with the 1s 3p 5d 7f 9g ... basis set
              ...i.e. with spherical basis functions...

   type   atoms  prim   cont   basis
   ---------------------------------------------------------------------------
    c        1     70     49   def2-TZVP   [6s4p3d1f1g|12s5p4d2f1g]
    n        1     70     49   def2-TZVP   [6s4p3d1f1g|12s5p4d2f1g]
    h        5     16     11   def2-TZVP   [3s1p1d|5s2p1d]
   ---------------------------------------------------------------------------
   total:    7    220    153
   ---------------------------------------------------------------------------

   total number of primitive shells          :   56
   total number of contracted shells         :   55
   total number of cartesian basis functions :  182
   total number of SCF-basis functions       :  153


 symmetry group of the molecule :   c1 

 the group has the following generators :
   c1(z)

    1 symmetry operations found

 there are 1 real representations :   a   

 maximum number of shells which are related by symmetry :  1

  
           ------------------
           density functional
           ------------------
 Becke-3-Parameter hybrid functional: B3-LYP
 exchange:    0.8*LDA + 0.72*B88 + 0.2*HF
 correlation: 0.19*LDA(VWN) + 0.81*LYP
 iterations will be done with small grid
  
 spherical integration : Lebedev's spherical grid
 spherical gridsize    :                     3
    i.e. gridpoints    :                   302
  maximum batchsize    :                   100
 value for diffuse not defined
 radial integration    : Chebyshev 2nd kind (scaling 3)
 radial gridsize       :                     3
 integration cells     :                     7
 partition function    : becke
 partition sharpness   :                     3
  

 biggest AO integral is expected to be     6.862573055

          ------------------------
          nuclear repulsion energy  :   41.9886363439    
          ------------------------


         -----------------
         -S,T+V- integrals
         -----------------

 1e-integrals will be neglected if expon. factor < 0.327643E-11
 
 Difference densities algorithm switched on.
 The maximal number of linear combinations of
 difference densities is  20.

 DIIS switched on: error vector is FDS-SDF
 Max. Iterations for DIIS is     :   4
 DIIS matrix (see manual) 
    Scaling factor of diagonals  :  1.200
    threshold for scaling factor :  0.000

 scf convergence criterion : increment of total energy < .1000000D-06
                  and increment of one-electron energy < .1000000D-03

 MOs are in ASCII format !


    mo occupation :
   irrep   mo's   occupied
    a       92        9
 
 number of basis functions   :    92
 number of occupied orbitals :     9
 

 reading orbital data $scfmo  from file mos
 orbital characterization : scfconv=7
 mo-orthogonalization by Cholesky decomposition

 automatic virtual orbital shift switched on 
      shift if e(lumo)-e(homo) < 0.10000000    

  
           ------------------------
               RI-J - INFORMATION
           ------------------------
 Contributions to RI integral batches: 
  neglected integral batches:                     2
  direct contribution:                            0
  memory contribution:                   901
 Memory core needed for (P|Q) and Cholesky      1 MByte
 Memory core minimum needed except of (P|Q)     1 MByte
 Total minimum memory core needed (sum)         1 MByte
  
 ****************************************
 Memory allocated for RI-J     8 MByte
 ****************************************
                                            

 DSCF restart information will be dumped onto file mos


 Starting SCF iterations

          Overall gridpoints after grid construction =          7838

 ITERATION  ENERGY          1e-ENERGY        2e-ENERGY     NORM[dD(SAO)]  TOL
   1  -95.835758943659    -211.56827458     73.743879289    0.000D+00 0.327D-10
                            Exc = -11.4466992378     Coul =  87.9033305449    
                            exK = -2.71275201854    
                              N = 18.000204589    
                            current damping = 0.300
 
          max. resid. norm for Fia-block=  1.268D-04 for orbital      6a         
          max. resid. fock norm         =  1.985D-03 for orbital     92a         

 ITERATION  ENERGY          1e-ENERGY        2e-ENERGY     NORM[dD(SAO)]  TOL
   2  -95.835759014667    -211.56855355     73.744158187    0.381D-03 0.207D-10
                            Exc = -11.4467237737      Eck =  85.1908819606    
                              N = 18.000204563    
                            current damping = 0.300
 
          Norm of current diis error: 0.25198E-03
          max. resid. norm for Fia-block=  3.332D-05 for orbital      5a         
          max. resid. fock norm         =  4.620D-04 for orbital     92a         

 ENERGY CONVERGED !

          Overall gridpoints after grid construction =         30685

 ITERATION  ENERGY          1e-ENERGY        2e-ENERGY     NORM[dD(SAO)]  TOL
   3  -95.835710189223    -211.56824008     73.743893545    0.590D-04 0.168D-10
                            Exc = -11.4466499417      Eck =  85.1905434871    
                              N = 17.999998733    
                            current damping = 0.350
 
          Norm of current diis error: 0.10955E-03
          max. resid. norm for Fia-block=  1.066D-05 for orbital      6a         
          max. resid. fock norm         =  1.055D-04 for orbital     92a         

 End of SCF iterations

   convergence criteria satisfied after     3 iterations


                  ------------------------------------------ 
                 |  total energy      =    -95.83571018922  |
                  ------------------------------------------ 
                 :  kinetic energy    =     95.38489675111  :
                 :  potential energy  =   -191.22060694033  :
                 :  virial theorem    =      1.99529597645  :
                 :  wavefunction norm =      0.99999999990  :
                  .......................................... 


 orbitals $scfmo  will be written to file mos

    irrep                  5a          6a          7a          8a          9a   
 eigenvalues H         -0.48843    -0.43808    -0.40162    -0.36707    -0.23735
            eV         -13.2910    -11.9208    -10.9286     -9.9885     -6.4588
 occupation              2.0000      2.0000      2.0000      2.0000      2.0000

    irrep                 10a         11a         12a         13a         14a   
 eigenvalues H          0.03212     0.07447     0.09478     0.12103     0.12979
            eV           0.8741      2.0266      2.5791      3.2934      3.5318
 
 
 
 
 ==============================================================================
                           electrostatic moments
 ==============================================================================

 reference point for electrostatic moments:    0.00000   0.00000   0.00000

 
              nuc           elec       ->  total
 ------------------------------------------------------------------------------
                          charge      
 ------------------------------------------------------------------------------
          18.000000     -18.000000       0.000000
 
 ------------------------------------------------------------------------------
                       dipole moment  
 ------------------------------------------------------------------------------
   x       4.194829      -4.196544      -0.001715
   y       1.762376      -2.009989      -0.247613
   z       3.267872      -3.734946      -0.467074
 
   | dipole moment | =     0.5287 a.u. =     1.3437 debye 
 
 ------------------------------------------------------------------------------
                     quadrupole moment
 ------------------------------------------------------------------------------
  xx      47.488701     -57.492542     -10.003841
  yy       9.864824     -19.926004     -10.061180
  zz       8.720207     -20.314767     -11.594559
  xy       3.280609      -3.957996      -0.677388
  xz       5.642250      -6.914163      -1.271913
  yz      -0.760736      -0.383299      -1.144035
 
     1/3  trace=     -10.553193
     anisotropy=       3.549474
 
 ==============================================================================
 
HOMO-LUMO Separation
 HOMO         :   -0.23735409 H =     -6.45874 eV
 LUMO         :    0.03212379 H =     +0.87413 eV
 HOMO-LUMO gap:    0.26947789 H =     +7.33287 eV
 
 ==============================================================================


    ------------------------------------------------------------------------
         total  cpu-time :   1.33 seconds
         total wall-time :   1.46 seconds
    ------------------------------------------------------------------------

   ****  ridft : all done  ****


    2026-03-20 21:31:13.442 

 ridft ended normally
