[Molden Format]
[Title]
                                                                                
[Atoms] AU
 c     1    6 -.10852068424751E+01 -.13520012866390E-01 -.94296727342600E-02
 n     2    7 0.16034772517351E+01 0.30499607387811E+00 0.55250363307160E+00
 h     3    1 -.19727195991222E+01 -.10973862026560E+01 0.15049502639585E+01
 h     4    1 -.15057241184823E+01 -.96778125546081E+00 -.18059573367704E+01
 h     5    1 -.19959750381507E+01 0.18369696940568E+01 -.47649292828350E-01
 h     6    1 0.24889240783871E+01 -.13909131898229E+01 0.62227791131531E+00
 h     7    1 0.24672242681081E+01 0.13276348928711E+01 -.81669739573854E+00
[GTO]
    1 0
 s    6 1.00
 0.13575349682000E+05 0.60645503603591E-03
 0.20352333680000E+04 0.46979088884982E-02
 0.46322562359000E+03 0.24332477647552E-01
 0.13120019598000E+03 0.97399968307759E-01
 0.42853015891000E+02 0.30195584253780E+00
 0.15584185766000E+02 0.66233609137875E+00
 s    2 1.00
 0.62067138508000E+01 0.65595308539952E+00
 0.25764896527000E+01 0.37585633285142E+00
 s    1 1.00
 0.57696339419000E+00 0.10000000000000E+01
 s    1 1.00
 0.22972831358000E+00 0.10000000000000E+01
 s    1 1.00
 0.95164440028000E-01 0.10000000000000E+01
 p    4 1.00
 0.34697232244000E+02 0.11327220003114E-01
 0.79582622826000E+01 0.76169659202087E-01
 0.23780826883000E+01 0.30192252202676E+00
 0.81433208183000E+00 0.72785027349547E+00
 p    1 1.00
 0.28887547253000E+00 0.10000000000000E+01
 p    1 1.00
 0.10056823671000E+00 0.10000000000000E+01
 d    1 1.00
 0.10970000000000E+01 0.10000000000000E+01
 d    1 1.00
 0.31800000000000E+00 0.10000000000000E+01
 f    1 1.00
 0.76100000000000E+00 0.10000000000000E+01
 
    2 0
 s    6 1.00
 0.19730800647000E+05 0.58626402628763E-03
 0.29578958745000E+04 0.45428820586397E-02
 0.67322133595000E+03 0.23558413450084E-01
 0.19068249494000E+03 0.94709193292923E-01
 0.62295441898000E+02 0.29719784913376E+00
 0.22654161182000E+02 0.66916246895232E+00
 s    2 1.00
 0.89791477428000E+01 0.64596683630063E+00
 0.36863002370000E+01 0.38700574393705E+00
 s    1 1.00
 0.84660076805000E+00 0.10000000000000E+01
 s    1 1.00
 0.33647133771000E+00 0.10000000000000E+01
 s    1 1.00
 0.13647653675000E+00 0.10000000000000E+01
 p    4 1.00
 0.49200380510000E+02 0.11448825101764E-01
 0.11346790537000E+02 0.78422337970864E-01
 0.34273972411000E+01 0.30818094738830E+00
 0.11785525134000E+01 0.72027196368413E+00
 p    1 1.00
 0.41642204972000E+00 0.10000000000000E+01
 p    1 1.00
 0.14260826011000E+00 0.10000000000000E+01
 d    1 1.00
 0.16540000000000E+01 0.10000000000000E+01
 d    1 1.00
 0.46900000000000E+00 0.10000000000000E+01
 f    1 1.00
 0.10930000000000E+01 0.10000000000000E+01
 
    3 0
 s    3 1.00
 0.34061341000000E+02 0.25439307208879E-01
 0.51235746000000E+01 0.19008594890375E+00
 0.11646626000000E+01 0.85244113011042E+00
 s    1 1.00
 0.32723041000000E+00 0.10000000000000E+01
 s    1 1.00
 0.10307241000000E+00 0.10000000000000E+01
 p    1 1.00
 0.80000000000000E+00 0.10000000000000E+01
 
    4 0
 s    3 1.00
 0.34061341000000E+02 0.25439307208879E-01
 0.51235746000000E+01 0.19008594890375E+00
 0.11646626000000E+01 0.85244113011042E+00
 s    1 1.00
 0.32723041000000E+00 0.10000000000000E+01
 s    1 1.00
 0.10307241000000E+00 0.10000000000000E+01
 p    1 1.00
 0.80000000000000E+00 0.10000000000000E+01
 
    5 0
 s    3 1.00
 0.34061341000000E+02 0.25439307208879E-01
 0.51235746000000E+01 0.19008594890375E+00
 0.11646626000000E+01 0.85244113011042E+00
 s    1 1.00
 0.32723041000000E+00 0.10000000000000E+01
 s    1 1.00
 0.10307241000000E+00 0.10000000000000E+01
 p    1 1.00
 0.80000000000000E+00 0.10000000000000E+01
 
    6 0
 s    3 1.00
 0.34061341000000E+02 0.25439307208879E-01
 0.51235746000000E+01 0.19008594890375E+00
 0.11646626000000E+01 0.85244113011042E+00
 s    1 1.00
 0.32723041000000E+00 0.10000000000000E+01
 s    1 1.00
 0.10307241000000E+00 0.10000000000000E+01
 p    1 1.00
 0.80000000000000E+00 0.10000000000000E+01
 
    7 0
 s    3 1.00
 0.34061341000000E+02 0.25439307208879E-01
 0.51235746000000E+01 0.19008594890375E+00
 0.11646626000000E+01 0.85244113011042E+00
 s    1 1.00
 0.32723041000000E+00 0.10000000000000E+01
 s    1 1.00
 0.10307241000000E+00 0.10000000000000E+01
 p    1 1.00
 0.80000000000000E+00 0.10000000000000E+01
 
[MO]
 Sym=     1a   
 Ene= -.14289320705278E+02
 Spin= Alpha
 Occup= 2.000000
     1 0.13434680402729E-04
     2 -.73410984780880E-04
     3 -.15481664284652E-02
     4 0.81601786294861E-02
     5 -.88148414740949E-02
     6 0.51141216046278E-04
     7 -.24924203539214E-04
     8 -.47760135438015E-04
     9 0.55490273243221E-02
    10 0.94749201543465E-03
    11 0.17084498429975E-02
    12 -.10206748682599E-02
    13 -.30921543001556E-03
    14 -.57036596479896E-03
    15 0.17804680800080E-03
    16 -.91059198783334E-04
    17 -.86987609217461E-04
    18 0.26353359641249E-04
    19 0.45252880670134E-04
    20 0.41837766543335E-05
    21 0.13700750916356E-02
    22 -.63222146956953E-03
    23 -.73785362206604E-03
    24 0.27732762568756E-03
    25 0.48920098786478E-03
    26 -.83291726503019E-04
    27 0.56834464362934E-04
    28 0.84755394704342E-05
    29 -.32992180178186E-05
    30 -.42999819611504E-04
    31 0.33696627752138E-05
    32 0.37108239746952E-05
    33 -.33251615856682E-04
    34 -.14740792216338E-04
    35 0.71554148156553E-06
    36 0.82303323930655E-05
    37 0.44831141725807E+00
    38 0.62691854214601E+00
    39 0.36547786952833E-01
    40 -.28788233974942E-01
    41 0.15401334123187E-01
    42 -.89630582836041E-03
    43 -.85453215066907E-03
    44 -.16048494907810E-02
    45 0.52667064158747E-02
    46 0.10235920454052E-02
    47 0.18684714284974E-02
    48 -.44797233297706E-04
    49 -.69585608107532E-03
    50 -.13148714929219E-02
    51 0.11445202908681E-03
    52 -.17063309237432E-04
    53 -.97388719849376E-04
    54 0.17117721487057E-05
    55 0.15206492570294E-05
    56 -.68282336362299E-04
    57 -.11262121689917E-02
    58 0.60311417232601E-03
    59 0.52309799666569E-03
    60 -.25718593857299E-03
    61 -.45372813060377E-03
    62 -.72397192486753E-04
    63 0.41707037080243E-04
    64 -.30668484252824E-04
    65 -.20942082285553E-04
    66 -.19694672275960E-04
    67 0.22410840209294E-04
    68 0.41139338245288E-04
    69 -.36261189754957E-04
    70 0.18735249124424E-04
    71 -.13042586496753E-04
    72 -.12716332000109E-04
    73 0.93873105789995E-05
    74 -.24590608741058E-03
    75 0.18056149144838E-02
    76 -.35780328153997E-03
    77 -.62289260722332E-04
    78 0.28171072778041E-04
    79 0.13028247904617E-03
    80 0.42449277239505E-03
    81 0.11180908960173E-02
    82 -.17760965226541E-03
    83 0.69231882762671E-05
    84 0.15960405382398E-04
    85 0.97281083849593E-05
    86 -.24489987726003E-03
    87 0.18052087515584E-02
    88 -.35873036653038E-03
    89 0.53643648032698E-04
    90 -.33184562727003E-04
    91 0.12594577484670E-03
    92 -.19016289918849E-03
    93 -.22387037432912E-02
    94 0.22641559877250E-03
    95 -.50016415790977E-03
    96 0.21655745222108E-04
    97 0.12794065728546E-03
    98 -.18327937114553E-03
    99 -.22406882426325E-02
   100 0.21826129908210E-03
   101 0.30047132557829E-03
   102 -.40059412121285E-03
 Sym=     2a   
 Ene= -.10182315566879E+02
 Spin= Alpha
 Occup= 2.000000
     1 0.46683842730208E+00
     2 0.60856614983342E+00
     3 0.34204436570293E-01
     4 -.10818047832275E-01
     5 0.21139248083538E-01
     6 0.45782801158086E-03
     7 0.44894195673556E-04
     8 0.80622029527435E-04
     9 0.16050880260681E-02
    10 0.49784505883125E-03
    11 0.91444221240578E-03
    12 -.18648631417015E-03
    13 0.58693722783313E-04
    14 0.11838767091895E-03
    15 0.15770105064240E-03
    16 -.76622047524917E-04
    17 -.81079003117485E-04
    18 0.31617453910950E-04
    19 0.55909824689017E-04
    20 -.26113979358520E-05
    21 0.32956495925153E-03
    22 -.16284025842292E-03
    23 -.16672470082860E-03
    24 0.14730439917583E-03
    25 0.26941154735281E-03
    26 0.75439569414527E-06
    27 0.40424210049969E-03
    28 0.21707621003803E-03
    29 -.13526797751305E-03
    30 -.32929359251838E-03
    31 0.10820159364529E-03
    32 0.18518190410792E-03
    33 -.21305409713239E-03
    34 -.39943989081112E-03
    35 -.37008683690645E-05
    36 0.96998404159531E-04
    37 -.19967671868759E-04
    38 -.12504054284587E-03
    39 0.17351689040070E-02
    40 -.33203883896838E-02
    41 -.28559648331700E-02
    42 -.72431198923210E-03
    43 -.65365235218113E-04
    44 -.11268480924002E-03
    45 0.42191134087636E-02
    46 0.28870631474640E-03
    47 0.48240836757401E-03
    48 0.24633129353954E-02
    49 -.21819713238471E-03
    50 -.44949317030320E-03
    51 0.72403244898335E-04
    52 -.54842790183235E-04
    53 -.17560454715101E-04
    54 0.10736436107856E-04
    55 0.17943140250651E-04
    56 0.32029078784755E-04
    57 -.16763508794910E-02
    58 0.99444704686826E-03
    59 0.68190383262278E-03
    60 -.35611147034157E-03
    61 -.62555077971459E-03
    62 -.27457624212875E-03
    63 0.21330205600513E-03
    64 -.86419572080870E-04
    65 -.81874140589343E-04
    66 -.14434269551626E-03
    67 0.86083843130034E-04
    68 0.15399364379455E-03
    69 -.14183204266451E-03
    70 0.29860179525527E-04
    71 -.44147957420261E-04
    72 0.59598184798933E-05
    73 -.61439855673351E-03
    74 -.24402285405745E-02
    75 -.40332657819066E-02
    76 -.10183544615542E-02
    77 -.11843947210804E-02
    78 0.16487281979913E-02
    79 -.56513341245127E-03
    80 -.20383607161349E-02
    81 -.41884625751511E-02
    82 -.45723651871548E-03
    83 -.98930443346810E-03
    84 -.18618447748678E-02
    85 -.61485724199498E-03
    86 -.24404545500072E-02
    87 -.40311696162841E-02
    88 -.10439579522764E-02
    89 0.20164830168676E-02
    90 -.45216805690876E-04
    91 -.21510533295064E-03
    92 -.10389438490700E-02
    93 -.10651806222893E-02
    94 0.26518069864845E-03
    95 -.14535414566707E-03
    96 0.61528524659212E-04
    97 -.21544695346690E-03
    98 -.10396432750804E-02
    99 -.10644584589255E-02
   100 0.26271204666702E-03
   101 0.13629154496918E-03
   102 -.87846044425275E-04
 Sym=     3a   
 Ene= -.87186582433830E+00
 Spin= Alpha
 Occup= 2.000000
     1 -.46974481466678E-01
     2 -.98824281741151E-01
     3 0.15720885212760E+00
     4 0.13511088429857E+00
     5 0.16517752880251E-01
     6 0.69564698123615E-01
     7 0.64406304438729E-02
     8 0.11157999888485E-01
     9 0.35545934160585E-01
    10 0.21453169625148E-02
    11 0.32711860370067E-02
    12 0.46165436178272E-02
    13 -.26890767881996E-03
    14 -.87101806970714E-03
    15 0.42936541938334E-02
    16 -.21551584576344E-02
    17 -.21384957361990E-02
    18 0.71158378827486E-03
    19 0.12324198036149E-02
    20 0.25912818557497E-04
    21 0.27405921080780E-02
    22 -.11152126573862E-02
    23 -.16253794506918E-02
    24 0.37138973318098E-04
    25 0.36287682515732E-04
    26 -.36099109261245E-03
    27 0.10231099840441E-02
    28 0.32480821611634E-03
    29 -.28206933922191E-03
    30 -.71671885663497E-03
    31 0.24332352028980E-03
    32 0.40794923117464E-03
    33 -.65592722703387E-03
    34 -.67909947082176E-03
    35 -.29513501053452E-04
    36 0.49751855646299E-04
    37 -.87906511995994E-01
    38 -.19757629605808E+00
    39 0.29658557576596E+00
    40 0.35744971010778E+00
    41 0.98646335229960E-01
    42 -.19259364396970E-01
    43 -.29160805922253E-01
    44 -.54791950103597E-01
    45 -.27161369580327E-01
    46 -.24415793648550E-01
    47 -.45217359504763E-01
    48 -.36473390287372E-02
    49 -.39498571773001E-02
    50 -.71358399489491E-02
    51 0.14195740051327E-02
    52 0.18212735220965E-03
    53 -.16017013573423E-02
    54 -.13530666915840E-03
    55 -.25588737502025E-03
    56 -.15309363146888E-02
    57 0.52093698041177E-02
    58 -.17627041130439E-02
    59 -.34466656910738E-02
    60 0.70142097791920E-03
    61 0.12750748539844E-02
    62 -.12872174227780E-02
    63 -.10539318302496E-02
    64 -.39343075133656E-03
    65 0.32366653355903E-03
    66 0.91334314717324E-03
    67 -.28021703143798E-03
    68 -.46648759842385E-03
    69 0.50065478248011E-03
    70 0.80805977409440E-03
    71 0.32243375776023E-04
    72 -.34241941235388E-03
    73 0.25574101931981E-01
    74 0.24694136608486E-01
    75 0.31825746464108E-02
    76 0.36381965585313E-02
    77 0.21090405560989E-02
    78 -.24294757242781E-02
    79 0.24790010518731E-01
    80 0.23243546025786E-01
    81 0.22465045687613E-02
    82 0.25534437283215E-02
    83 0.17158595544782E-02
    84 0.32176087012791E-02
    85 0.25577952891019E-01
    86 0.24434486313523E-01
    87 0.31149947929295E-02
    88 0.36560717642735E-02
    89 -.31104284360694E-02
    90 0.34447907720992E-03
    91 0.79747568109406E-01
    92 0.72503738912747E-01
    93 0.68329880509163E-02
    94 -.76901756067740E-02
    95 0.12444974943756E-01
    96 -.25139582717144E-02
    97 0.79733403898270E-01
    98 0.72961296104353E-01
    99 0.67453796933883E-02
   100 -.76154381581717E-02
   101 -.92671706436565E-02
   102 0.90031434825839E-02
 Sym=     4a   
 Ene= -.65760732297119E+00
 Spin= Alpha
 Occup= 2.000000
     1 -.82646909007856E-01
     2 -.17550118223024E+00
     3 0.27970724326093E+00
     4 0.31032658525495E+00
     5 0.91769961383503E-01
     6 -.65484488056323E-01
     7 -.92550828023965E-03
     8 -.74118045882120E-03
     9 -.27782118318933E-01
    10 0.15097249594513E-02
    11 0.29533382162355E-02
    12 -.82753913762185E-02
    13 -.41257199170324E-02
    14 -.78541392483517E-02
    15 -.25055856788395E-02
    16 0.12832687084764E-02
    17 0.12223169703630E-02
    18 -.73854688975700E-04
    19 -.51528103804366E-04
    20 -.44415739876780E-04
    21 0.22396845831456E-02
    22 -.63200755371966E-03
    23 -.16076770294260E-02
    24 0.52635695028466E-03
    25 0.93782676741987E-03
    26 -.82065893168199E-03
    27 0.14357791411916E-02
    28 0.51243421707524E-03
    29 -.56957678120123E-03
    30 -.11407380659176E-02
    31 0.49081836358946E-03
    32 0.85665447050276E-03
    33 -.78556179031084E-03
    34 -.11783210096157E-02
    35 -.92487029799867E-04
    36 0.30172728727569E-03
    37 0.36231856201077E-01
    38 0.82092228322568E-01
    39 -.12670066417115E+00
    40 -.16433083773491E+00
    41 -.87562973041183E-01
    42 -.12596849317527E+00
    43 0.14282016839770E-01
    44 0.28770186421534E-01
    45 -.83915000819399E-01
    46 0.12219556563202E-01
    47 0.24407528450467E-01
    48 -.25260235696871E-01
    49 0.52091514838219E-02
    50 0.10302600950837E-01
    51 0.23677963277456E-02
    52 -.19707033386602E-02
    53 -.39709298908545E-03
    54 0.11743546185168E-02
    55 0.21412452337790E-02
    56 0.13515271053666E-02
    57 0.96955572298112E-03
    58 -.99929730731918E-03
    59 0.29741584338058E-04
    60 0.18070037932819E-02
    61 0.33574701491113E-02
    62 0.98511931449479E-03
    63 0.20436931940489E-03
    64 0.24052995218107E-03
    65 -.14283881293901E-03
    66 -.33911078569146E-03
    67 0.11396912682749E-03
    68 0.19335080796151E-03
    69 0.64920571268635E-04
    70 -.43667392104848E-03
    71 -.17124306273074E-05
    72 0.34863469494929E-03
    73 0.86387218520170E-01
    74 0.95440092664808E-01
    75 0.17294270195843E-01
    76 0.40196362475815E-02
    77 0.70238447940302E-02
    78 -.96664178222372E-02
    79 0.80815358044801E-01
    80 0.91540909227672E-01
    81 0.74019486918586E-02
    82 0.62040254414857E-03
    83 0.56672294577481E-02
    84 0.10763371951267E-01
    85 0.86432300747964E-01
    86 0.95100535585721E-01
    87 0.17354061667423E-01
    88 0.41359424542095E-02
    89 -.11837432527291E-01
    90 0.36938605657514E-03
    91 -.66468796190734E-01
    92 -.68272535013353E-01
    93 -.14227961876462E-01
    94 0.10588494620853E-02
    95 -.10850488971364E-01
    96 0.14930715906545E-02
    97 -.66378553892786E-01
    98 -.68195082607476E-01
    99 -.14227869157412E-01
   100 0.89799950756730E-03
   101 0.73229475028127E-02
   102 -.81195539167948E-02
 Sym=     5a   
 Ene= -.48843199882203E+00
 Spin= Alpha
 Occup= 2.000000
     1 0.36219038147927E-05
     2 0.23197117569565E-05
     3 -.91457774921422E-05
     4 0.37092789944515E-04
     5 0.62479807128112E-03
     6 -.10989542794890E-02
     7 0.14911990164606E+00
     8 -.78924043763661E-01
     9 -.91668907391529E-03
    10 0.10204349605621E+00
    11 -.53857957173249E-01
    12 -.28220866231207E-03
    13 0.52165678637515E-01
    14 -.27666637574387E-01
    15 -.12724970033481E-05
    16 0.23905163564219E-02
    17 -.23892438594185E-02
    18 0.89389610712989E-03
    19 -.50635069965602E-03
    20 0.18673698114734E-02
    21 -.18622069565059E-03
    22 -.42194551369441E-03
    23 0.60816620934499E-03
    24 0.81600407608239E-02
    25 -.42987911966980E-02
    26 -.53886454941673E-03
    27 -.12626000791675E-04
    28 -.46081947107440E-03
    29 0.29009809377715E-03
    30 0.27530904627245E-03
    31 0.84799126352240E-03
    32 -.45337832104995E-03
    33 -.25836948863996E-03
    34 -.22973706591569E-03
    35 0.64170886352670E-04
    36 0.20681199661576E-03
    37 -.53416281700983E-05
    38 -.19742360819891E-04
    39 0.12636047212316E-03
    40 -.21876773277296E-03
    41 0.30236876139367E-03
    42 -.21684979765766E-02
    43 0.26902506995878E+00
    44 -.14238952508858E+00
    45 -.16718189447719E-02
    46 0.19490639490778E+00
    47 -.10309248665879E+00
    48 -.38285259708285E-03
    49 0.82073436761077E-01
    50 -.43651970443930E-01
    51 -.28916224952796E-04
    52 -.42017823315580E-02
    53 0.42306985565108E-02
    54 0.26755422688210E-02
    55 -.13537053928872E-02
    56 -.33405335922629E-02
    57 0.62621107729178E-04
    58 -.50127004212219E-02
    59 0.49500793134927E-02
    60 -.41439266310907E-02
    61 0.22304271841788E-02
    62 -.38289199648749E-02
    63 -.73384628677705E-05
    64 -.18110462731260E-03
    65 0.53564346847488E-03
    66 -.27080266610277E-04
    67 0.41100272764537E-03
    68 -.22473911197959E-03
    69 0.36925847703892E-04
    70 -.16802537301893E-03
    71 -.49390201234858E-03
    72 -.24611411647972E-04
    73 -.63330881648780E-01
    74 -.88541219910677E-01
    75 -.14242034945707E-01
    76 -.69493450627964E-02
    77 -.18977868897606E-02
    78 0.66948542858022E-02
    79 -.16129399905853E-04
    80 -.16517462200216E-04
    81 -.19596901706920E-03
    82 -.32736629373548E-04
    83 0.45935802419780E-02
    84 -.24376147946073E-02
    85 0.63287508119881E-01
    86 0.88024978566038E-01
    87 0.14202420583335E-01
    88 0.69345847544252E-02
    89 -.64372751848873E-02
    90 -.22125469708465E-02
    91 -.12656307030748E+00
    92 -.17285983597726E+00
    93 -.56191041907925E-01
    94 0.13987289550541E-01
    95 -.13854845783982E-01
    96 -.40520022250720E-02
    97 0.12658581906987E+00
    98 0.17286624534486E+00
    99 0.55768209053151E-01
   100 -.13907809930948E-01
   101 -.46211075124677E-02
   102 0.13874487649827E-01
 Sym=     6a   
 Ene= -.43807754390480E+00
 Spin= Alpha
 Occup= 2.000000
     1 0.32740516123467E-02
     2 0.65933313218773E-02
     3 -.91146650648506E-02
     4 -.97509847401263E-02
     5 -.42975226152153E-01
     6 0.17611529108064E+00
     7 0.10782473085569E+00
     8 0.20117727836222E+00
     9 0.12171601985499E+00
    10 0.76451597619170E-01
    11 0.14222387441159E+00
    12 0.46767481477011E-01
    13 0.24341158697372E-01
    14 0.45329308115526E-01
    15 0.71466255223897E-02
    16 -.19047457402315E-02
    17 -.52418797821582E-02
    18 0.14034380585033E-02
    19 0.25234249729488E-02
    20 -.28222038185300E-02
    21 0.32720103907559E-02
    22 -.13125537740873E-02
    23 -.19594566166686E-02
    24 0.14177389763046E-02
    25 0.26011680370712E-02
    26 -.22812924628199E-03
    27 0.35783157535440E-03
    28 -.23566364555712E-03
    29 -.45596248702251E-03
    30 -.34703222622112E-03
    31 0.43987576889762E-03
    32 0.80208841281000E-03
    33 -.13304920997184E-03
    34 -.12369981012294E-03
    35 -.19035054310668E-03
    36 0.19168846803893E-03
    37 -.13995452858026E-01
    38 -.31987025340002E-01
    39 0.46170778701576E-01
    40 0.91733544468419E-01
    41 0.36131042929563E-01
    42 -.24596589658016E+00
    43 0.43926088761132E-01
    44 0.86706471198181E-01
    45 -.19419356185898E+00
    46 0.33506987856016E-01
    47 0.66139601403487E-01
    48 -.95683359728775E-01
    49 0.23169099194231E-01
    50 0.45694455081984E-01
    51 0.45438591460597E-02
    52 -.25904645851077E-02
    53 -.19533945609520E-02
    54 0.11752000604159E-02
    55 0.21091908208743E-02
    56 0.55449232541564E-03
    57 0.70814097294516E-02
    58 -.11607309100958E-02
    59 -.59206788193557E-02
    60 0.23509235399836E-02
    61 0.42591518536620E-02
    62 -.39547227358831E-02
    63 -.84364998704285E-03
    64 0.49940134746623E-04
    65 -.18921804982824E-03
    66 0.35823882067546E-03
    67 0.14427088224010E-03
    68 0.30687331862176E-03
    69 0.77363641147133E-03
    70 -.21127260389947E-03
    71 -.53010665430231E-04
    72 0.36910864568444E-03
    73 0.12072720804960E-02
    74 0.25378034295935E-02
    75 0.12523710985881E-01
    76 0.67680216625171E-02
    77 0.41580675613220E-02
    78 0.68331247035453E-02
    79 -.13451955622964E+00
    80 -.18346801406514E+00
    81 -.80603258754790E-01
    82 -.55554185937669E-03
    83 -.72070943385365E-02
    84 -.13725237648635E-01
    85 0.11840486988561E-02
    86 0.20923433710981E-02
    87 0.12688030124754E-01
    88 0.66834708390508E-02
    89 0.34336869724284E-02
    90 0.71373787443033E-02
    91 -.62304434252946E-01
    92 -.83072435162229E-01
    93 -.34286228618861E-01
    94 -.25696466312145E-02
    95 -.97849657091254E-02
    96 0.46828473993367E-02
    97 -.62263073846558E-01
    98 -.83199175771887E-01
    99 -.33963802139602E-01
   100 -.27145465151576E-02
   101 0.93493247297502E-02
   102 -.54401449671640E-02
 Sym=     7a   
 Ene= -.40161677376394E+00
 Spin= Alpha
 Occup= 2.000000
     1 0.34309680847171E-02
     2 0.78343005707069E-02
     3 -.14470555055674E-01
     4 -.12992207484771E-01
     5 0.74355518149575E-02
     6 -.22981545439122E+00
     7 0.98563103959483E-01
     8 0.18970462427314E+00
     9 -.16114904176241E+00
    10 0.68566883007810E-01
    11 0.13234065477030E+00
    12 -.75675375101204E-01
    13 0.36969319830036E-01
    14 0.71497502609939E-01
    15 -.50591448966104E-02
    16 0.54506391672756E-02
    17 -.39149427066517E-03
    18 -.22718018915881E-02
    19 -.40648021151021E-02
    20 -.50231464833358E-02
    21 -.28585895500408E-02
    22 0.22699848717281E-02
    23 0.58860467831268E-03
    24 -.94087550387502E-03
    25 -.18104823708346E-02
    26 -.15110156817011E-02
    27 -.66615166264729E-03
    28 0.11308095356548E-03
    29 0.18950699319190E-03
    30 0.49141400299386E-03
    31 -.19957870507338E-03
    32 -.33607717310606E-03
    33 0.40232223760845E-03
    34 0.47864685593636E-04
    35 0.81826861712849E-04
    36 -.76329597378617E-04
    37 -.30797820454836E-02
    38 -.67676984483683E-02
    39 0.10965891286500E-01
    40 0.13621059050012E-01
    41 -.15526752187189E-02
    42 0.19893678546078E+00
    43 0.43616969067927E-01
    44 0.79279701135895E-01
    45 0.15876816631484E+00
    46 0.39874693517212E-01
    47 0.72490840980919E-01
    48 0.91106611687568E-01
    49 0.22154216524400E-01
    50 0.40230780682897E-01
    51 -.17972563458644E-02
    52 0.18958199398655E-02
    53 -.98563594001010E-04
    54 -.21781275476618E-02
    55 -.40770194702086E-02
    56 -.17370573801542E-02
    57 0.20782567454010E-03
    58 0.26384529027695E-02
    59 -.28462785773096E-02
    60 -.58880115773333E-02
    61 -.11015253992189E-01
    62 -.49194861896770E-02
    63 0.83462006775744E-04
    64 -.11570829585137E-03
    65 -.32591524994988E-03
    66 -.17731802261038E-04
    67 0.30011996259647E-03
    68 0.57287516309613E-03
    69 -.94244230152429E-04
    70 -.14488099354588E-03
    71 -.13561397082107E-03
    72 -.64278606982359E-04
    73 0.97196950894392E-01
    74 0.13989974368810E+00
    75 0.55855266043709E-01
    76 -.69437051669146E-04
    77 0.12282027372649E-01
    78 -.57795331208634E-02
    79 -.92337230762530E-01
    80 -.12991650780883E+00
    81 -.60174213591395E-01
    82 -.11346845707848E-01
    83 -.36198940426660E-02
    84 -.67059093938693E-02
    85 0.97233161921389E-01
    86 0.13999849496261E+00
    87 0.56137457890825E-01
    88 0.13198010439842E-03
    89 -.11750500862177E-01
    90 0.68900383212717E-02
    91 0.38501582271591E-01
    92 0.54524126854974E-01
    93 0.36228842676199E-01
    94 0.51063867743557E-02
    95 0.79762028851575E-02
    96 0.34494658392075E-02
    97 0.38530486604973E-01
    98 0.54334971043255E-01
    99 0.36322016721760E-01
   100 0.52555502974988E-02
   101 -.15047855848407E-02
   102 0.84518719090839E-02
 Sym=     8a   
 Ene= -.36706672603416E+00
 Spin= Alpha
 Occup= 2.000000
     1 -.46945725697000E-05
     2 -.10022225875422E-04
     3 -.37463683233859E-04
     4 0.15868766608090E-03
     5 0.36505159784323E-03
     6 -.21357896035309E-02
     7 0.25867274173835E+00
     8 -.13682254938613E+00
     9 -.13324050131742E-02
    10 0.17610591753341E+00
    11 -.93069985958707E-01
    12 -.88627572978766E-03
    13 0.10274986188497E+00
    14 -.54537967223284E-01
    15 0.10365075314907E-03
    16 0.42314562454696E-02
    17 -.43351069986186E-02
    18 -.74248013420187E-02
    19 0.38791880576213E-02
    20 0.34348825566250E-02
    21 0.11406614269444E-03
    22 -.14577750508678E-02
    23 0.13437089081733E-02
    24 -.75749639630241E-02
    25 0.40384451781056E-02
    26 -.11171252499449E-02
    27 0.16721665625453E-04
    28 0.37147564629704E-03
    29 -.12523558408347E-03
    30 -.75703102801143E-04
    31 -.64905901793444E-03
    32 0.34952945700130E-03
    33 0.53268634179823E-04
    34 0.15067213967094E-03
    35 -.18150828947379E-03
    36 -.32123011301032E-04
    37 -.98815040878498E-06
    38 -.47468843237261E-06
    39 -.76628812939283E-05
    40 0.29372736401868E-04
    41 -.30225108454179E-03
    42 0.12750819845033E-02
    43 -.15587967155095E+00
    44 0.82572561941282E-01
    45 0.10384665398326E-02
    46 -.11069702508816E+00
    47 0.58674660004309E-01
    48 0.38010355084003E-03
    49 -.61641869550659E-01
    50 0.32778460576222E-01
    51 0.54829732418597E-04
    52 0.24311805895021E-02
    53 -.24860103219207E-02
    54 -.45774648592753E-02
    55 0.23903458239784E-02
    56 0.19739246837352E-02
    57 0.11645577392652E-03
    58 0.28474440032345E-02
    59 -.29638997771610E-02
    60 -.83175421217262E-02
    61 0.43497896665944E-02
    62 0.23543587129050E-02
    63 -.78185675129580E-05
    64 -.33990790118919E-03
    65 -.83860035170233E-04
    66 0.33722374310716E-03
    67 0.56098285991906E-03
    68 -.29896057368570E-03
    69 -.32673403403977E-03
    70 -.10494855603007E-03
    71 0.41147061722739E-03
    72 0.25102231928611E-03
    73 -.13729385460610E+00
    74 -.20453196042254E+00
    75 -.94642801697481E-01
    76 -.98311551709837E-02
    77 -.25896603786885E-02
    78 0.11950505815526E-01
    79 -.25502908049931E-04
    80 0.11808290082847E-03
    81 -.32159108070131E-03
    82 -.66019757154514E-04
    83 0.85626736709191E-02
    84 -.45155965714168E-02
    85 0.13736464126271E+00
    86 0.20420077253448E+00
    87 0.94697502708249E-01
    88 0.98885005269190E-02
    89 -.11171175245326E-01
    90 -.45685404351376E-02
    91 0.87086296613621E-01
    92 0.12657082877473E+00
    93 0.81553542649488E-01
    94 -.65609250921110E-02
    95 0.78184409266383E-02
    96 0.23898427587538E-02
    97 -.87077218245163E-01
    98 -.12662558570874E+00
    99 -.81304179582434E-01
   100 0.65004051593942E-02
   101 0.25238463025794E-02
   102 -.78636799594924E-02
 Sym=     9a   
 Ene= -.23735409403533E+00
 Spin= Alpha
 Occup= 2.000000
     1 0.58419924067669E-02
     2 0.13152944343403E-01
     3 -.32184168537101E-01
     4 0.10665535634013E-01
     5 0.30171640570239E-01
     6 -.34176113787332E-01
     7 -.53027426760727E-01
     8 -.99535263711886E-01
     9 -.82891263081973E-02
    10 -.35222485230225E-01
    11 -.66966322910803E-01
    12 0.10878225975362E-01
    13 -.16860893655658E-01
    14 -.31242154461842E-01
    15 -.40045689152785E-02
    16 -.10208546007401E-02
    17 0.50254235160186E-02
    18 0.35592969512149E-02
    19 0.67394505160501E-02
    20 0.52415104030258E-02
    21 -.16718450133091E-02
    22 -.88198912401291E-03
    23 0.25538341373220E-02
    24 0.68670785519951E-02
    25 0.13102203389634E-01
    26 0.31474601771514E-02
    27 -.63595118768714E-03
    28 -.38322593295645E-03
    29 -.58228784283433E-03
    30 0.11810167504216E-03
    31 0.54443850846766E-03
    32 0.10448610568998E-02
    33 0.73511637658195E-03
    34 -.30286966368832E-04
    35 -.26363993747024E-03
    36 0.54066182770055E-03
    37 -.27993179314949E-01
    38 -.64114117768605E-01
    39 0.10345985805466E+00
    40 0.15728790176533E+00
    41 0.11842833311183E+00
    42 0.30937718692479E-01
    43 0.18352065962803E+00
    44 0.34620781076642E+00
    45 0.34089243961598E-01
    46 0.15005028430673E+00
    47 0.28239749621127E+00
    48 0.61752368302101E-01
    49 0.16121033095009E+00
    50 0.30340214086510E+00
    51 0.11293763907103E-02
    52 0.15980116850647E-03
    53 -.12891775592168E-02
    54 0.24154739079831E-03
    55 0.41189293133596E-03
    56 -.12198152578368E-02
    57 0.20473371654387E-02
    58 0.44745238836187E-02
    59 -.65218610490575E-02
    60 0.13702619721466E-03
    61 0.32729124656975E-03
    62 -.94588437101263E-02
    63 0.36003288547389E-03
    64 0.53906557185470E-03
    65 -.42968796408844E-03
    66 0.18173747498117E-04
    67 0.32461696699234E-03
    68 0.63495988383633E-03
    69 -.50120855113112E-03
    70 -.10478493247905E-02
    71 -.58472985747188E-04
    72 -.44874034795664E-03
    73 -.37652693319008E-01
    74 -.67577770425493E-01
    75 -.48762969117835E-01
    76 -.14832628378749E-02
    77 -.38923132914270E-02
    78 0.53657027330977E-03