
   OpenMP run-time library returned nthreads =  4

 rdgrad (DESKTOP-T8QF9C0) : TURBOMOLE V7-8-1 24 Jan 2024 at 10:18:17 compiled  Jan 2024
 Copyright (C) 2024 TURBOMOLE GmbH, Karlsruhe


    2026-03-20 23:33:13.200 



                                 r d g r a d

                          gradient for ridft program 

                        by K.Eichkorn, O.Treutler, H.Oehm, 
                             M.Haeser and R.Ahlrichs
                  (Chemical Physics Letters 242 (1995) 652-660)
                    parallel version: M.v.Arnim  &  R.Ahlrichs
                            quantum chemistry group
                             university  karlsruhe
                                   germany




                          References             
                                                 
          Density Functional:                              
              O. Treutler and R. Ahlrichs                      
              Efficient Molecular Numerical Integration Schemes
              J. Chem. Phys. 102: 346 (1995)                   
          Parallel Version:                                
              Performance of parallel TURBOMOLE for Density    
              Functional Calculations                          
              M. v. Arnim and R. Ahlrichs                      
              J. Comp. Chem. 19: 1746 (1998)                   
          RI-J Method:                                     
              Auxiliary Basis Sets to approximate Coulomb      
              Potentials                                       
              Chem. Phys. Lett. 240: 283 (1995)                
              K. Eichkorn, O. Treutler, H. Oehm, M. Haeser     
              and R. Ahlrichs                                  
              Chem. Phys. Lett. 242: 652 (1995)                
                                                           
              Auxiliary Basis Sets for Main Row Atoms and their
              Use to approximate Coulomb Potentials            
              K. Eichkorn, F. Weigend, O. Treutler and         
              R. Ahlrichs                                      
              Theo. Chem. Acc. 97: 119 (1997)                  
          Relativistic Two-component ECP formalism             
              Efficient two-component self-consistent field    
              procedures and gradients: implementation in      
              TURBOMOLE and application to Au20-               
              A. Baldes and F. Weigend                         
              Mol. Phys. 111: 2617 (2013)                      
          Relativistic all-electron 2c calculations (X2C, DLU) 
              Efficient implementation of one- and two-component
              analytical energy gradients in exact two-component
              theory                                           
              Y. J. Franzke, N. Middendorf and F. Weigend      
              J. Chem. Phys. 148: 104110 (2018)                
          Exploitation of symmetry in scalar X2C response      
              NMR shielding tensors and chemical shifts in     
              scalar-relativistic local exact two-component    
              theory                                           
              Y. J. Franzke and F. Weigend                     
              J. Chem. Theory Comput. 15: 1028 (2019)          
                                                              





          OpenMP Shared-Memory Parallelization:  4 CPUs.

            By: Yannick J. Franzke and Christof Holzer
 

 integral neglect threshold       :  0.11E-10
 integral storage threshold THIZE :  0.10E-04
 integral storage threshold THIME :         5

 Becke-3-Parameter hybrid functional: B3-LYP
 exchange:    0.8*LDA + 0.72*B88 + 0.2*HF
 correlation: 0.19*LDA(VWN) + 0.81*LYP
 A Hybrid-DFT calculation using the RI-J approximation will be carried out.
  
  
 AUXILIARY BASIS SET information:

 symmetry group of the molecule :   c1 

 the group has the following generators :
   c1(z)

    1 symmetry operations found

 there are 1 real representations :   a   

 maximum number of shells which are related by symmetry :  1


    mo occupation :
   irrep   mo's   occupied
    a      272       30
 
 number of basis functions   :   272
 number of occupied orbitals :    30
 

 number of off-diagonal lagrangians expected :  0

 biggest AO integral is expected to be     7.998976882
  
           ------------------
           density functional
           ------------------
 Becke-3-Parameter hybrid functional: B3-LYP
 exchange:    0.8*LDA + 0.72*B88 + 0.2*HF
 correlation: 0.19*LDA(VWN) + 0.81*LYP
 iterations will be done with small grid
  
 spherical integration : Lebedev's spherical grid
 spherical gridsize    :                     3
    i.e. gridpoints    :                   302
  maximum batchsize    :                   100
 value for diffuse not defined
 radial integration    : Chebyshev 2nd kind (scaling 3)
 radial gridsize       :                     3
 integration cells     :                    12
 partition function    : becke
 partition sharpness   :                     3
  
  
           ------------------------
             RDGRAD - INFORMATION
           ------------------------
  
 Threshold for integral neglect (rithr1): 1E-10
 Threshold for integral neglect (rithr2): 1E-10
 Contributions to RI integral batches: 
  neglected integral batches:                   502
  direct contribution:                         4958
     
 ****************************************
 Memory allocated for RDGRAD: 3 MiB
 ****************************************
                                            
     

 nuclear repulsion energy  :   379.421840099    

  MOs are in ASCII format !


 reading orbital data $scfmo  from file mos
 orbital characterization : scfconv=7
  Deviation of MOs from orthonormality   2.958769367749151E-011

    ----------------------------------------
     S+T+V CONTRIBUTIONS TO ENERGY GRADIENT 
    ----------------------------------------

 1e-integral 1st. derivatives will be neglected if expon. factor < 0.214589E-13


 setting up bound for integral derivative estimation

 increment for numerical differentiation : 0.00050000

 biggest AO integral is expected to be     7.998976882
 biggest cartesian 1st derivative AO integral is expected to be    17.678530758

 biggest 1-particle AO density matrix element is expected to be    0.9424498941

 setting up bound for integral derivative estimation

 increment for numerical differentiation : 0.00050000

 biggest AO integral is expected to be     7.998976882
 biggest cartesian 1st derivative AO integral is expected to be    17.678530758

 2e-integral 1st. derivatives will be neglected if expon. factor < 0.100000E-06
 outer boundary for 2e-integral derivative neglection is 0.187643E-07

          Overall gridpoints after grid construction =         63386

 Integrated ground state density     :   59.99996662267300    


          ------------------------------------------------
           cartesian gradient of the energy (hartree/bohr)
          ------------------------------------------------

  ATOM      1 c           2 c           3 o           4 o           5 c 
dE/dx -0.3356302D-04 -0.4863829D-04  0.1065239D-03 -0.2383461D-05  0.2751252D-04
dE/dy -0.1204240D-04 -0.1225181D-04 -0.1118098D-03 -0.6714634D-04 -0.4847755D-05
dE/dz -0.3483011D-04 -0.5088944D-04 -0.1714768D-04  0.1472575D-04 -0.3290108D-04

  ATOM      6 c           7 o           8 o           9 h          10 h 
dE/dx  0.9231899D-04 -0.1494488D-03 -0.2321498D-04 -0.4012231D-04  0.5592004D-04
dE/dy -0.7973114D-05  0.1158551D-03  0.6124587D-04  0.3961051D-04  0.6930427D-05
dE/dz -0.6536357D-04 -0.1626182D-04  0.2465643D-05  0.6166109D-04 -0.4765101D-04

  ATOM     11 h          12 h 
dE/dx -0.4599264D-04  0.3543136D-04
dE/dy -0.2102539D-04 -0.4452664D-04
dE/dz -0.4689445D-04  0.5533515D-04
 
 resulting FORCE  (fx,fy,fz) = (-.257D-04,-.580D-04,-.178D-03)
 resulting MOMENT (mx,my,mz) = (0.279D-04,0.103D-03,0.224D-03)


 exx =      -0.000643 eyy =      -0.001056 ezz =      -0.000224
 eyz =       0.000013 exz =      -0.000003 exy =       0.000638


 **********************************************************************
  |maximum component of gradient| : 0.14944878E-03  (atom  7 o )       
   gradient norm                  : 0.33909692E-03
 **********************************************************************
   ***  cartesian gradients written onto <gradient>  ***


     --- calculation of the energy gradient finished ---



    ------------------------------------------------------------------------
         total  cpu-time :  30.03 seconds
         total wall-time :   7.99 seconds
    ------------------------------------------------------------------------

   ****  rdgrad : all done  ****


    2026-03-20 23:33:21.179 

 rdgrad ended normally

 statpt (DESKTOP-T8QF9C0) : TURBOMOLE V7-8-1 24 Jan 2024 at 10:18:17 compiled  Jan 2024
 Copyright (C) 2024 TURBOMOLE GmbH, Karlsruhe


    2026-03-20 23:33:21.263 



                           this is S T A T P T   


                     hessian and coordinate update for
                          stationary point search 

                     by barbara unterreiner, marek sierka,
                           and reinhart ahlrichs

                          quantum chemistry group
                          universitaet  karlsruhe
                                  germany




              +--------------------------------------------------+
              | Atomic coordinate, charge and isotop information |
              +--------------------------------------------------+

                    atomic coordinates            atom    charge  isotop
         -1.97375384   -1.58445502    0.32351432    c      6.000     0
         -2.45486326    1.11952198   -0.49970744    c      6.000     0
         -4.51823967    1.93751089   -0.91895136    o      8.000     0
         -0.37512345    2.57936707   -0.72752684    o      8.000     0
          1.97843346    1.59942083    0.19706948    c      6.000     0
          2.44611145   -1.14745831   -0.47856744    c      6.000     0
          4.50197495   -1.98935346   -0.88697663    o      8.000     0
          0.36338264   -2.61669777   -0.58541506    o      8.000     0
         -3.46987286   -2.77309031   -0.42393000    h      1.000     0
         -2.02849826   -1.68436298    2.39073534    h      1.000     0
          2.07017516    1.81724219    2.25381238    h      1.000     0
          3.46027369    2.74235491   -0.64405673    h      1.000     0
 
       center of nuclear mass  :   -0.00400305   -0.01274662   -0.44620106
       center of nuclear charge:   -0.00360666   -0.01148443   -0.40200908
  Keyword $statpt not found - using default options
 
        ***************  Stationary point options ******************
        ************************************************************
           Maximum allowed trust radius:           3.000000E-01
           Minimum allowed trust radius:           1.000000E-03
           Initial trust radius:                   1.500000E-01
           GDIIS used if gradient norm <           1.000000E-02
           Number of previous steps for GDIIS:       5
           Hessian update method:                  BFGS
                        *** Convergence criteria ***                
           Threshold for energy change:            1.000000E-06
           Threshold for max displacement element: 1.000000E-03
           Threshold for max gradient element :    1.000000E-03
           Threshold for RMS of displacement:      5.000000E-04
           Threshold for RMS of gradient:          5.000000E-04
        ************************************************************
 

  Keyword $statp missing in file <control>

  Keyword $statpt not found - using default options
  *************************************************************************
   ATOM                      CARTESIAN COORDINATES
    1 c      -1.97375383587435     -1.58445502443266      0.32351431534231
    2 c      -2.45486326242060      1.11952198327265     -0.49970744223001
    3 o      -4.51823966894449      1.93751088623305     -0.91895136079518
    4 o      -0.37512345091411      2.57936706611907     -0.72752684130712
    5 c       1.97843345685913      1.59942082566003      0.19706947524194
    6 c       2.44611144900497     -1.14745830601805     -0.47856744495448
    7 o       4.50197495155741     -1.98935346200375     -0.88697662682115
    8 o       0.36338263676090     -2.61669777428210     -0.58541505708115
    9 h      -3.46987286384346     -2.77309031359300     -0.42393000123849
   10 h      -2.02849826242538     -1.68436297540503      2.39073533583842
   11 h       2.07017515658893      1.81724218625871      2.25381238048019
   12 h       3.46027369365065      2.74235490819116     -0.64405673247472
  *************************************************************************
   ATOM                      CARTESIAN GRADIENTS  
    1 c      -0.00003356301970     -0.00001204240319     -0.00003483011089
    2 c      -0.00004863828754     -0.00001225180980     -0.00005088944355
    3 o       0.00010652394692     -0.00011180977765     -0.00001714767540
    4 o      -0.00000238346139     -0.00006714633546      0.00001472574736
    5 c       0.00002751252134     -0.00000484775456     -0.00003290108414
    6 c       0.00009231898699     -0.00000797311394     -0.00006536356540
    7 o      -0.00014944878147      0.00011585508662     -0.00001626182153
    8 o      -0.00002321497635      0.00006124586619      0.00000246564341
    9 h      -0.00004012231397      0.00003961051439      0.00006166109040
   10 h       0.00005592004079      0.00000693042661     -0.00004765101163
   11 h      -0.00004599264055     -0.00002102539231     -0.00004689444932
   12 h       0.00003543136406     -0.00004452664166      0.00005533514964
  *************************************************************************

  norm of actual CARTESIAN gradient:  3.39097E-04

  ENERGY =    -455.6896149766 a.u.; # of cycle =   24

  Approximate Hessian read from $hessapprox data section

  Hessian updated according to BFGS formula
  Number of zero Hessian eigenvalues:   6
  Number of structures for GDIIS interpolation:    5
  GDIIS step:     0.001939

      ****************************************************************** 
                          CONVERGENCE INFORMATION

                               Converged?     Value      Criterion
             Energy change         yes      0.0000004   0.0000010
             RMS of displacement   yes      0.0003232   0.0005000
             RMS of gradient       yes      0.0000565   0.0005000
             MAX displacement      yes      0.0009758   0.0010000
             MAX gradient          yes      0.0001494   0.0010000
      ****************************************************************** 


    ------------------------------------------------------------------------
         total  cpu-time :   0.05 seconds
         total wall-time :   0.05 seconds
    ------------------------------------------------------------------------

   ****  statpt : all done  ****


    2026-03-20 23:33:21.295 

  statpt ended normally

   OpenMP run-time library returned nthreads =  4

 ridft (DESKTOP-T8QF9C0) : TURBOMOLE V7-8-1 24 Jan 2024 at 10:18:17 compiled  Jan 2024
 Copyright (C) 2024 TURBOMOLE GmbH, Karlsruhe


    2026-03-20 23:33:21.376 



                                  r i d f t

                        DFT program with RI approximation 
                                for coulomb part 





                                 References:     
                                                 
          TURBOMOLE:                             
              R. Ahlrichs, M. Baer, M. Haeser, H. Horn, and
              C. Koelmel
              Electronic structure calculations on workstation
              computers: the program system TURBOMOLE
              Chem. Phys. Lett. 162: 165 (1989)
          Density Functional:                              
              O. Treutler and R. Ahlrichs                      
              Efficient Molecular Numerical Integration Schemes
              J. Chem. Phys. 102: 346 (1995)                   
          Parallel Version:                                
              Performance of parallel TURBOMOLE for Density    
              Functional Calculations                          
              M. v. Arnim and R. Ahlrichs                      
              J. Comp. Chem. 19: 1746 (1998)                   
          RI-J Method:                                     
              Auxiliary Basis Sets to approximate Coulomb      
              Potentials                                       
              Chem. Phys. Lett. 240: 283 (1995)                
              K. Eichkorn, O. Treutler, H. Oehm, M. Haeser     
              and R. Ahlrichs                                  
              Chem. Phys. Lett. 242: 652 (1995)                
                                                           
              Auxiliary Basis Sets for Main Row Atoms and their
              Use to approximate Coulomb Potentials            
              K. Eichkorn, F. Weigend, O. Treutler and         
              R. Ahlrichs                                      
              Theo. Chem. Acc. 97: 119 (1997)                  
                                                           
              Accurate Coulomb-fitting basis sets for H to Rn 
              F. Weigend                                       
              Phys. Chem. Chem. Phys. 8: 1057 (2006)           
                                                           
          Multipole accelerated RI-J (MARI-J):             
              Fast evaluation of the Coulomb potential for     
              electron densities using multipole accelerated   
              resolution of identity approximation             
              M. Sierka, A. Hogekamp and R. Ahlrichs           
              J. Chem. Phys. 118: 9136 (2003)                  
          RI-JK Method:                                     
              A fully direct RI-HF algorithm: Implementation,
              optimised auxiliary basis sets, demonstration of
              accuracy and efficiency                         
              F. Weigend                                      
              Phys. Chem. Chem. Phys. 4: 4285 (2002)           
          Two-component HF and DFT with spin-orbit coupling:  
              Self-consistent treatment of spin-orbit         
              interactions with efficient Hartree-Fock and    
              density functional methods                      
              M. K. Armbruster, F. Weigend, C. van Wüllen and 
              W. Klopper                                      
              Phys. Chem. Chem. Phys. 10: 1748 (2008)         
          Two-component difference density and DIIS algorithm 
              Efficient two-component self-consistent field   
              procedures and gradients: implementation in     
              TURBOMOLE and application to Au20-              
              A. Baldes, F. Weigend                           
              Mol. Phys. 111: 2617 (2013)                     
          Relativistic current density functional theory      
              Current density functional framework for        
              spin-orbit coupling                             
              C. Holzer, Y. J. Franzke, A. Pausch             
              J. Chem. Phys. 157: 204102 (2022)               
          Relativistic all-electron 2c calculations           
              An efficient implementation of two-component    
              relativistic exact-decoupling methods for large 
              molecules                                       
              D. Peng, N. Middendorf, F. Weigend, M. Reiher   
              J. Chem. Phys. 138: 184105 (2013)               
          Finite nucleus model and SNSO approximation         
              Efficient implementation of one- and two-       
              component analytical energy gradients in exact  
              two-component theory                            
              Y. J. Franzke, N. Middendorf, F. Weigend        
              J. Chem. Phys. 148: 104110 (2018)               
          Grids for all-electron relativistic methods         
              Error-consistent segmented contracted all-      
              electron relativistic basis sets of double-     
              and triple-zeta quality for NMR shielding       
              constants                                       
              Y. J. Franzke, R. Tress, T. M. Pazdera,         
              F. Weigend                                      
              Phys. Chem. Chem. Phys. 21: 166658 (2019)       
          Seminumerical exchange algorithms                   
              Seminumerical calculation of the Hartree-Fock   
              exchange matirx: Application to two-component   
              procedures and efficient evaluation of local    
              hybrid functionsl                               
              P. Plessow, F. Weigend,                         
              J. Comput. Chem. 33: 810 (2012)                 
          Improved seminumerical algorithms                   
              C. Holzer,                                      
              J. Chem. Phys. 153 (2020), 184115               






          OpenMP Shared-Memory Parallelization:  4 CPUs.

            By: Christof Holzer and Yannick J. Franzke


              +--------------------------------------------------+
              |      general information about current run       |
              +--------------------------------------------------+

 
 Becke-3-Parameter hybrid functional: B3-LYP
 exchange:    0.8*LDA + 0.72*B88 + 0.2*HF
 correlation: 0.19*LDA(VWN) + 0.81*LYP
 A Hybrid-DFT calculation using the RI-J approximation will be carried out.
 Allocatable memory for RI due to $ricore (MB):                  5000


              +--------------------------------------------------+
              | Atomic coordinate, charge and isotop information |
              +--------------------------------------------------+

                    atomic coordinates            atom    charge  isotop
         -1.97373141   -1.58453082    0.32319354    c      6.000     0
         -2.45499023    1.11967483   -0.49978894    c      6.000     0
         -4.51850706    1.93804296   -0.91797560    o      8.000     0
         -0.37519436    2.57960330   -0.72778317    o      8.000     0
          1.97840701    1.59949496    0.19675940    c      6.000     0
          2.44620531   -1.14766493   -0.47865865    c      6.000     0
          4.50226703   -1.98980923   -0.88603047    o      8.000     0
          0.36350987   -2.61694570   -0.58558941    o      8.000     0
         -3.46975623   -2.77355967   -0.42410405    h      1.000     0
         -2.02842811   -1.68413803    2.39056814    h      1.000     0
          2.07004123    1.81700586    2.25364037    h      1.000     0
          3.46017694    2.74282648   -0.64423115    h      1.000     0
 
       center of nuclear mass  :   -0.00399610   -0.01274353   -0.44608463
       center of nuclear charge:   -0.00360030   -0.01148151   -0.40190206

              +--------------------------------------------------+
              |               basis set information              |
              +--------------------------------------------------+

              we will work with the 1s 3p 5d 7f 9g ... basis set
              ...i.e. with spherical basis functions...

   type   atoms  prim   cont   basis
   ---------------------------------------------------------------------------
    c        4     46     31   def2-TZVP   [5s3p2d1f|11s6p2d1f]
    o        4     46     31   def2-TZVP   [5s3p2d1f|11s6p2d1f]
    h        4      8      6   def2-TZVP   [3s1p|5s1p]
   ---------------------------------------------------------------------------
   total:   12    400    272
   ---------------------------------------------------------------------------

   total number of primitive shells          :   46
   total number of contracted shells         :  104
   total number of cartesian basis functions :  312
   total number of SCF-basis functions       :  272


 integral neglect threshold       :  0.11E-10
 integral storage threshold THIZE :  0.10E-04
 integral storage threshold THIME :         5

 RI-J AUXILIARY BASIS SET information:

              we will work with the 1s 3p 5d 7f 9g ... basis set
              ...i.e. with spherical basis functions...

   type   atoms  prim   cont   basis
   ---------------------------------------------------------------------------
    c        4     70     49   def2-TZVP   [6s4p3d1f1g|12s5p4d2f1g]
    o        4     70     49   def2-TZVP   [6s4p3d1f1g|12s5p4d2f1g]
    h        4     16     11   def2-TZVP   [3s1p1d|5s2p1d]
   ---------------------------------------------------------------------------
   total:   12    624    436
   ---------------------------------------------------------------------------

   total number of primitive shells          :   56
   total number of contracted shells         :  140
   total number of cartesian basis functions :  536
   total number of SCF-basis functions       :  436


 symmetry group of the molecule :   c1 

 the group has the following generators :
   c1(z)

    1 symmetry operations found

 there are 1 real representations :   a   

 maximum number of shells which are related by symmetry :  1

  
           ------------------
           density functional
           ------------------
 Becke-3-Parameter hybrid functional: B3-LYP
 exchange:    0.8*LDA + 0.72*B88 + 0.2*HF
 correlation: 0.19*LDA(VWN) + 0.81*LYP
 iterations will be done with small grid
  
 spherical integration : Lebedev's spherical grid
 spherical gridsize    :                     3
    i.e. gridpoints    :                   302
  maximum batchsize    :                   100
 value for diffuse not defined
 radial integration    : Chebyshev 2nd kind (scaling 3)
 radial gridsize       :                     3
 integration cells     :                    12
 partition function    : becke
 partition sharpness   :                     3
  

 biggest AO integral is expected to be     7.998976882

          ------------------------
          nuclear repulsion energy  :   379.404228001    
          ------------------------


         -----------------
         -S,T+V- integrals
         -----------------

 1e-integrals will be neglected if expon. factor < 0.107114E-11
 
 Difference densities algorithm switched on.
 The maximal number of linear combinations of
 difference densities is  20.

 DIIS switched on: error vector is FDS-SDF
 Max. Iterations for DIIS is     :   4
 DIIS matrix (see manual) 
    Scaling factor of diagonals  :  1.200
    threshold for scaling factor :  0.000

 scf convergence criterion : increment of total energy < .1000000D-06
                  and increment of one-electron energy < .1000000D-03

 MOs are in ASCII format !


    mo occupation :
   irrep   mo's   occupied
    a      272       30
 
 number of basis functions   :   272
 number of occupied orbitals :    30
 

 reading orbital data $scfmo  from file mos
 orbital characterization : scfconv=7
 mo-orthogonalization by Cholesky decomposition

 automatic virtual orbital shift switched on 
      shift if e(lumo)-e(homo) < 0.10000000    

  
           ------------------------
               RI-J - INFORMATION
           ------------------------
 Contributions to RI integral batches: 
  neglected integral batches:                   502
  direct contribution:                            0
  memory contribution:                  4958
 Memory core needed for (P|Q) and Cholesky      2 MByte
 Memory core minimum needed except of (P|Q)     1 MByte
 Total minimum memory core needed (sum)         2 MByte
  
 ****************************************
 Memory allocated for RI-J   186 MByte
 ****************************************
                                            

 DSCF restart information will be dumped onto file mos


 Starting SCF iterations

          Overall gridpoints after grid construction =         17562

 ITERATION  ENERGY          1e-ENERGY        2e-ENERGY     NORM[dD(SAO)]  TOL
   1  -455.68980104445    -1374.5014956     539.40746658    0.000D+00 0.107D-10
                            Exc = -46.3859924269     Coul =  596.809508536    
                            exK = -11.0160495318    
                              N = 60.001329578    
                            current damping = 0.300
 
          max. resid. norm for Fia-block=  1.791D-04 for orbital     25a         
          max. resid. fock norm         =  1.834D-03 for orbital    251a         

 ITERATION  ENERGY          1e-ENERGY        2e-ENERGY     NORM[dD(SAO)]  TOL
   2  -455.68980138563    -1374.5005276     539.40649820    0.692D-03 0.677D-11
                            Exc = -46.3859117111      Eck =  585.792409906    
                              N = 60.001329682    
                            current damping = 0.250
 
          Norm of current diis error: 0.55520E-03
          max. resid. norm for Fia-block=  5.331D-05 for orbital     25a         
          max. resid. fock norm         =  4.215D-04 for orbital    251a         

 ITERATION  ENERGY          1e-ENERGY        2e-ENERGY     NORM[dD(SAO)]  TOL
   3  -455.68980141881    -1374.5011773     539.40714786    0.120D-03 0.536D-11
                            Exc = -46.3859477818      Eck =  585.793095640    
                              N = 60.001329698    
                            current damping = 0.300
 
          Norm of current diis error: 0.19333E-03
          max. resid. norm for Fia-block=  1.382D-05 for orbital     25a         
          max. resid. fock norm         =  8.526D-05 for orbital    251a         

 ITERATION  ENERGY          1e-ENERGY        2e-ENERGY     NORM[dD(SAO)]  TOL
   4  -455.68980142159    -1374.5007899     539.40676047    0.525D-04 0.512D-11
                            Exc = -46.3859348419      Eck =  585.792695312    
                              N = 60.001329709    
                            current damping = 0.350
 
          Norm of current diis error: 0.12700E-03
          max. resid. norm for Fia-block=  5.232D-06 for orbital     28a         
          max. resid. fock norm         =  2.250D-05 for orbital    270a         

 ENERGY CONVERGED !

          Overall gridpoints after grid construction =         63387

 ITERATION  ENERGY          1e-ENERGY        2e-ENERGY     NORM[dD(SAO)]  TOL
   5  -455.68961506161    -1374.5007663     539.40692323    0.240D-04 0.498D-11
                            Exc = -46.3857388432      Eck =  585.792662078    
                              N = 59.999966568    
                            current damping = 0.400
 
          Norm of current diis error: 0.36683E-04
          max. resid. norm for Fia-block=  1.498D-06 for orbital     22a         
          max. resid. fock norm         =  6.119D-06 for orbital    270a         

 End of SCF iterations

   convergence criteria satisfied after     5 iterations


                  ------------------------------------------ 
                 |  total energy      =   -455.68961506161  |
                  ------------------------------------------ 
                 :  kinetic energy    =    453.91700174075  :
                 :  potential energy  =   -909.60661680236  :
                 :  virial theorem    =      1.99611004231  :
                 :  wavefunction norm =      0.99999999990  :
                  .......................................... 


 orbitals $scfmo  will be written to file mos

    irrep                 26a         27a         28a         29a         30a   
 eigenvalues H         -0.38674    -0.35066    -0.34143    -0.30182    -0.30155
            eV         -10.5237     -9.5419     -9.2909     -8.2129     -8.2055
 occupation              2.0000      2.0000      2.0000      2.0000      2.0000

    irrep                 31a         32a         33a         34a         35a   
 eigenvalues H         -0.03378    -0.03232     0.00725     0.05055     0.05509
            eV          -0.9193     -0.8794      0.1974      1.3757      1.4991
 
 
 
 
 ==============================================================================
                           electrostatic moments
 ==============================================================================

 reference point for electrostatic moments:    0.00000   0.00000   0.00000

 
              nuc           elec       ->  total
 ------------------------------------------------------------------------------
                          charge      
 ------------------------------------------------------------------------------
          60.000000     -60.000000       0.000000
 
 ------------------------------------------------------------------------------
                       dipole moment  
 ------------------------------------------------------------------------------
   x      -0.216018       0.224080       0.008062
   y      -0.688891       0.715013       0.026123
   z     -24.114124      25.035518       0.921394
 
   | dipole moment | =     0.9218 a.u. =     2.3430 debye 
 
 ------------------------------------------------------------------------------
                     quadrupole moment
 ------------------------------------------------------------------------------
  xx     479.017066    -520.884561     -41.867495
  yy     236.938007    -273.796357     -36.858351
  zz      35.123537     -67.068460     -31.944923
  xy    -126.373088     134.946887       8.573799
  xz      -0.345460       0.188730      -0.156729
  yz      -4.655686       4.719575       0.063890
 
     1/3  trace=     -36.890256
     anisotropy=      17.159877
 
 ==============================================================================
 
HOMO-LUMO Separation
 HOMO         :   -0.30154590 H =     -8.20549 eV
 LUMO         :   -0.03378401 H =     -0.91931 eV
 HOMO-LUMO gap:    0.26776189 H =     +7.28618 eV
 
 ==============================================================================


    ------------------------------------------------------------------------
         total  cpu-time :  40.62 seconds
         total wall-time :  11.34 seconds
    ------------------------------------------------------------------------

   ****  ridft : all done  ****


    2026-03-20 23:33:32.698 

 ridft ended normally
