[Molden Format]
[Title]
                                                                                
[Atoms] AU
 c     1    6 -.19737314122994E+01 -.15845308184722E+01 0.32319353801018E+00
 c     2    6 -.24549902264106E+01 0.11196748250473E+01 -.49978894372566E+00
 o     3    8 -.45185070612587E+01 0.19380429555133E+01 -.91797559579564E+00
 o     4    8 -.37519435628056E+00 0.25796032968081E+01 -.72778316888273E+00
 c     5    6 0.19784070097460E+01 0.15994949554496E+01 0.19675940123288E+00
 c     6    6 0.24462053119317E+01 -.11476649258644E+01 -.47865865104065E+00
 o     7    8 0.45022670318717E+01 -.19898092298424E+01 -.88603047397276E+00
 o     8    8 0.36350987285896E+00 -.26169457020833E+01 -.58558941411311E+00
 h     9    1 -.34697562302849E+01 -.27735596659523E+01 -.42410405282278E+00
 h    10    1 -.20284281145363E+01 -.16841380308195E+01 0.23905681355378E+01
 h    11    1 0.20700412309347E+01 0.18170058628992E+01 0.22536403749810E+01
 h    12    1 0.34601769437270E+01 0.27428264773167E+01 -.64423114940794E+00
[GTO]
    1 0
 s    6 1.00
 0.13575349682000E+05 0.60645503603591E-03
 0.20352333680000E+04 0.46979088884982E-02
 0.46322562359000E+03 0.24332477647552E-01
 0.13120019598000E+03 0.97399968307759E-01
 0.42853015891000E+02 0.30195584253780E+00
 0.15584185766000E+02 0.66233609137875E+00
 s    2 1.00
 0.62067138508000E+01 0.65595308539952E+00
 0.25764896527000E+01 0.37585633285142E+00
 s    1 1.00
 0.57696339419000E+00 0.10000000000000E+01
 s    1 1.00
 0.22972831358000E+00 0.10000000000000E+01
 s    1 1.00
 0.95164440028000E-01 0.10000000000000E+01
 p    4 1.00
 0.34697232244000E+02 0.11327220003114E-01
 0.79582622826000E+01 0.76169659202087E-01
 0.23780826883000E+01 0.30192252202676E+00
 0.81433208183000E+00 0.72785027349547E+00
 p    1 1.00
 0.28887547253000E+00 0.10000000000000E+01
 p    1 1.00
 0.10056823671000E+00 0.10000000000000E+01
 d    1 1.00
 0.10970000000000E+01 0.10000000000000E+01
 d    1 1.00
 0.31800000000000E+00 0.10000000000000E+01
 f    1 1.00
 0.76100000000000E+00 0.10000000000000E+01
 
    2 0
 s    6 1.00
 0.13575349682000E+05 0.60645503603591E-03
 0.20352333680000E+04 0.46979088884982E-02
 0.46322562359000E+03 0.24332477647552E-01
 0.13120019598000E+03 0.97399968307759E-01
 0.42853015891000E+02 0.30195584253780E+00
 0.15584185766000E+02 0.66233609137875E+00
 s    2 1.00
 0.62067138508000E+01 0.65595308539952E+00
 0.25764896527000E+01 0.37585633285142E+00
 s    1 1.00
 0.57696339419000E+00 0.10000000000000E+01
 s    1 1.00
 0.22972831358000E+00 0.10000000000000E+01
 s    1 1.00
 0.95164440028000E-01 0.10000000000000E+01
 p    4 1.00
 0.34697232244000E+02 0.11327220003114E-01
 0.79582622826000E+01 0.76169659202087E-01
 0.23780826883000E+01 0.30192252202676E+00
 0.81433208183000E+00 0.72785027349547E+00
 p    1 1.00
 0.28887547253000E+00 0.10000000000000E+01
 p    1 1.00
 0.10056823671000E+00 0.10000000000000E+01
 d    1 1.00
 0.10970000000000E+01 0.10000000000000E+01
 d    1 1.00
 0.31800000000000E+00 0.10000000000000E+01
 f    1 1.00
 0.76100000000000E+00 0.10000000000000E+01
 
    3 0
 s    6 1.00
 0.27032382631000E+05 0.57227335211155E-03
 0.40523871392000E+04 0.44353233492995E-02
 0.92232722710000E+03 0.23020107706038E-01
 0.26124070989000E+03 0.92822490667928E-01
 0.85354641351000E+02 0.29378500009671E+00
 0.31035035245000E+02 0.67401604501641E+00
 s    2 1.00
 0.12260860728000E+02 0.63839937025506E+00
 0.49987076005000E+01 0.39534587125718E+00
 s    1 1.00
 0.11703108158000E+01 0.10000000000000E+01
 s    1 1.00
 0.46474740994000E+00 0.10000000000000E+01
 s    1 1.00
 0.18504536357000E+00 0.10000000000000E+01
 p    4 1.00
 0.63274954801000E+02 0.12018332222616E-01
 0.14627049379000E+02 0.83005421790056E-01
 0.44501223456000E+01 0.31991743925964E+00
 0.15275799647000E+01 0.70715542916104E+00
 p    1 1.00
 0.52935117943000E+00 0.10000000000000E+01
 p    1 1.00
 0.17478421270000E+00 0.10000000000000E+01
 d    1 1.00
 0.23140000000000E+01 0.10000000000000E+01
 d    1 1.00
 0.64500000000000E+00 0.10000000000000E+01
 f    1 1.00
 0.14280000000000E+01 0.10000000000000E+01
 
    4 0
 s    6 1.00
 0.27032382631000E+05 0.57227335211155E-03
 0.40523871392000E+04 0.44353233492995E-02
 0.92232722710000E+03 0.23020107706038E-01
 0.26124070989000E+03 0.92822490667928E-01
 0.85354641351000E+02 0.29378500009671E+00
 0.31035035245000E+02 0.67401604501641E+00
 s    2 1.00
 0.12260860728000E+02 0.63839937025506E+00
 0.49987076005000E+01 0.39534587125718E+00
 s    1 1.00
 0.11703108158000E+01 0.10000000000000E+01
 s    1 1.00
 0.46474740994000E+00 0.10000000000000E+01
 s    1 1.00
 0.18504536357000E+00 0.10000000000000E+01
 p    4 1.00
 0.63274954801000E+02 0.12018332222616E-01
 0.14627049379000E+02 0.83005421790056E-01
 0.44501223456000E+01 0.31991743925964E+00
 0.15275799647000E+01 0.70715542916104E+00
 p    1 1.00
 0.52935117943000E+00 0.10000000000000E+01
 p    1 1.00
 0.17478421270000E+00 0.10000000000000E+01
 d    1 1.00
 0.23140000000000E+01 0.10000000000000E+01
 d    1 1.00
 0.64500000000000E+00 0.10000000000000E+01
 f    1 1.00
 0.14280000000000E+01 0.10000000000000E+01
 
    5 0
 s    6 1.00
 0.13575349682000E+05 0.60645503603591E-03
 0.20352333680000E+04 0.46979088884982E-02
 0.46322562359000E+03 0.24332477647552E-01
 0.13120019598000E+03 0.97399968307759E-01
 0.42853015891000E+02 0.30195584253780E+00
 0.15584185766000E+02 0.66233609137875E+00
 s    2 1.00
 0.62067138508000E+01 0.65595308539952E+00
 0.25764896527000E+01 0.37585633285142E+00
 s    1 1.00
 0.57696339419000E+00 0.10000000000000E+01
 s    1 1.00
 0.22972831358000E+00 0.10000000000000E+01
 s    1 1.00
 0.95164440028000E-01 0.10000000000000E+01
 p    4 1.00
 0.34697232244000E+02 0.11327220003114E-01
 0.79582622826000E+01 0.76169659202087E-01
 0.23780826883000E+01 0.30192252202676E+00
 0.81433208183000E+00 0.72785027349547E+00
 p    1 1.00
 0.28887547253000E+00 0.10000000000000E+01
 p    1 1.00
 0.10056823671000E+00 0.10000000000000E+01
 d    1 1.00
 0.10970000000000E+01 0.10000000000000E+01
 d    1 1.00
 0.31800000000000E+00 0.10000000000000E+01
 f    1 1.00
 0.76100000000000E+00 0.10000000000000E+01
 
    6 0
 s    6 1.00
 0.13575349682000E+05 0.60645503603591E-03
 0.20352333680000E+04 0.46979088884982E-02
 0.46322562359000E+03 0.24332477647552E-01
 0.13120019598000E+03 0.97399968307759E-01
 0.42853015891000E+02 0.30195584253780E+00
 0.15584185766000E+02 0.66233609137875E+00
 s    2 1.00
 0.62067138508000E+01 0.65595308539952E+00
 0.25764896527000E+01 0.37585633285142E+00
 s    1 1.00
 0.57696339419000E+00 0.10000000000000E+01
 s    1 1.00
 0.22972831358000E+00 0.10000000000000E+01
 s    1 1.00
 0.95164440028000E-01 0.10000000000000E+01
 p    4 1.00
 0.34697232244000E+02 0.11327220003114E-01
 0.79582622826000E+01 0.76169659202087E-01
 0.23780826883000E+01 0.30192252202676E+00
 0.81433208183000E+00 0.72785027349547E+00
 p    1 1.00
 0.28887547253000E+00 0.10000000000000E+01
 p    1 1.00
 0.10056823671000E+00 0.10000000000000E+01
 d    1 1.00
 0.10970000000000E+01 0.10000000000000E+01
 d    1 1.00
 0.31800000000000E+00 0.10000000000000E+01
 f    1 1.00
 0.76100000000000E+00 0.10000000000000E+01
 
    7 0
 s    6 1.00
 0.27032382631000E+05 0.57227335211155E-03
 0.40523871392000E+04 0.44353233492995E-02
 0.92232722710000E+03 0.23020107706038E-01
 0.26124070989000E+03 0.92822490667928E-01
 0.85354641351000E+02 0.29378500009671E+00
 0.31035035245000E+02 0.67401604501641E+00
 s    2 1.00
 0.12260860728000E+02 0.63839937025506E+00
 0.49987076005000E+01 0.39534587125718E+00
 s    1 1.00
 0.11703108158000E+01 0.10000000000000E+01
 s    1 1.00
 0.46474740994000E+00 0.10000000000000E+01
 s    1 1.00
 0.18504536357000E+00 0.10000000000000E+01
 p    4 1.00
 0.63274954801000E+02 0.12018332222616E-01
 0.14627049379000E+02 0.83005421790056E-01
 0.44501223456000E+01 0.31991743925964E+00
 0.15275799647000E+01 0.70715542916104E+00
 p    1 1.00
 0.52935117943000E+00 0.10000000000000E+01
 p    1 1.00
 0.17478421270000E+00 0.10000000000000E+01
 d    1 1.00
 0.23140000000000E+01 0.10000000000000E+01
 d    1 1.00
 0.64500000000000E+00 0.10000000000000E+01
 f    1 1.00
 0.14280000000000E+01 0.10000000000000E+01
 
    8 0
 s    6 1.00
 0.27032382631000E+05 0.57227335211155E-03
 0.40523871392000E+04 0.44353233492995E-02
 0.92232722710000E+03 0.23020107706038E-01
 0.26124070989000E+03 0.92822490667928E-01
 0.85354641351000E+02 0.29378500009671E+00
 0.31035035245000E+02 0.67401604501641E+00
 s    2 1.00
 0.12260860728000E+02 0.63839937025506E+00
 0.49987076005000E+01 0.39534587125718E+00
 s    1 1.00
 0.11703108158000E+01 0.10000000000000E+01
 s    1 1.00
 0.46474740994000E+00 0.10000000000000E+01
 s    1 1.00
 0.18504536357000E+00 0.10000000000000E+01
 p    4 1.00
 0.63274954801000E+02 0.12018332222616E-01
 0.14627049379000E+02 0.83005421790056E-01
 0.44501223456000E+01 0.31991743925964E+00
 0.15275799647000E+01 0.70715542916104E+00
 p    1 1.00
 0.52935117943000E+00 0.10000000000000E+01
 p    1 1.00
 0.17478421270000E+00 0.10000000000000E+01
 d    1 1.00
 0.23140000000000E+01 0.10000000000000E+01
 d    1 1.00
 0.64500000000000E+00 0.10000000000000E+01
 f    1 1.00
 0.14280000000000E+01 0.10000000000000E+01
 
    9 0
 s    3 1.00
 0.34061341000000E+02 0.25439307208879E-01
 0.51235746000000E+01 0.19008594890375E+00
 0.11646626000000E+01 0.85244113011042E+00
 s    1 1.00
 0.32723041000000E+00 0.10000000000000E+01
 s    1 1.00
 0.10307241000000E+00 0.10000000000000E+01
 p    1 1.00
 0.80000000000000E+00 0.10000000000000E+01
 
   10 0
 s    3 1.00
 0.34061341000000E+02 0.25439307208879E-01
 0.51235746000000E+01 0.19008594890375E+00
 0.11646626000000E+01 0.85244113011042E+00
 s    1 1.00
 0.32723041000000E+00 0.10000000000000E+01
 s    1 1.00
 0.10307241000000E+00 0.10000000000000E+01
 p    1 1.00
 0.80000000000000E+00 0.10000000000000E+01
 
   11 0
 s    3 1.00
 0.34061341000000E+02 0.25439307208879E-01
 0.51235746000000E+01 0.19008594890375E+00
 0.11646626000000E+01 0.85244113011042E+00
 s    1 1.00
 0.32723041000000E+00 0.10000000000000E+01
 s    1 1.00
 0.10307241000000E+00 0.10000000000000E+01
 p    1 1.00
 0.80000000000000E+00 0.10000000000000E+01
 
   12 0
 s    3 1.00
 0.34061341000000E+02 0.25439307208879E-01
 0.51235746000000E+01 0.19008594890375E+00
 0.11646626000000E+01 0.85244113011042E+00
 s    1 1.00
 0.32723041000000E+00 0.10000000000000E+01
 s    1 1.00
 0.10307241000000E+00 0.10000000000000E+01
 p    1 1.00
 0.80000000000000E+00 0.10000000000000E+01
 
[MO]
 Sym=     1a   
 Ene= -.19206988955006E+02
 Spin= Alpha
 Occup= 2.000000
     1 0.15533823582670E-04
     2 -.79975944222832E-04
     3 -.16741827445043E-02
     4 0.51312033854401E-02
     5 -.98610690335889E-02
     6 -.24463548329061E-03
     7 0.18636149743625E-04
     8 0.12303786532360E-03
     9 0.51034211914517E-02
    10 -.28586237176342E-02
    11 -.20702729357633E-02
    12 -.11327079910709E-02
    13 -.12278682112602E-02
    14 0.35789450040291E-03
    15 0.15338302505026E-03
    16 -.80848185117558E-04
    17 -.72534839932704E-04
    18 -.17911344867357E-03
    19 -.11685974753680E-03
    20 0.91441062901009E-04
    21 0.14150365056433E-02
    22 -.67232533573626E-03
    23 -.74271116990709E-03
    24 -.73524736636957E-03
    25 -.10888879208332E-02
    26 0.35124184479932E-03
    27 0.53894784792819E-04
    28 0.70324236891056E-04
    29 0.75720227968115E-04
    30 -.10003117373012E-04
    31 -.12290509437616E-03
    32 -.12975417061391E-03
    33 -.62304324084666E-04
    34 0.28555229883645E-04
    35 0.28164824408813E-04
    36 0.83767299137218E-04
    37 -.15522832907699E-04
    38 0.84993771618999E-04
    39 0.46680326899615E-03
    40 -.16905481293950E-02
    41 0.44422178186593E-02
    42 0.85460187736486E-05
    43 -.14221251992777E-04
    44 -.11618735727899E-03
    45 -.17901418344736E-02
    46 -.27709307236657E-02
    47 0.94856032352860E-03
    48 0.14444462944877E-02
    49 -.15203154197309E-02
    50 -.23049224913340E-04
    51 -.33717044551494E-04
    52 -.23977894206361E-04
    53 0.57694938757855E-04
    54 -.15211767820397E-03
    55 -.33472069570458E-04
    56 0.36023888577706E-04
    57 -.90153026636994E-03
    58 0.38285591506736E-03
    59 0.51867435130257E-03
    60 -.41972713106805E-03
    61 0.45618947522978E-03
    62 -.10908636869570E-03
    63 -.22768461903699E-04
    64 0.14050552595772E-04
    65 -.21709745119575E-04
    66 -.33131062614777E-04
    67 -.31851098020704E-04
    68 0.51384874467804E-05
    69 0.63678159750649E-04
    70 0.13000303585355E-04
    71 0.23988192070158E-04
    72 0.34854223965840E-05
    73 0.32053854969829E-05
    74 0.12211285262843E-04
    75 -.48537440715886E-04
    76 0.16722469534436E-03
    77 0.84579695368441E-03
    78 -.44093404078925E-04
    79 0.18128063808738E-05
    80 -.36744501687889E-04
    81 0.19733290726083E-03
    82 -.10667745751250E-03
    83 0.22302381472700E-03
    84 0.84083121529501E-04
    85 0.81650420366272E-04
    86 0.35253005197537E-03
    87 -.10334280285434E-04
    88 -.56810028982581E-06
    89 0.10902380575260E-04
    90 -.16733303261208E-04
    91 -.20990119823930E-04
    92 0.14029039537974E-04
    93 0.33452797774378E-04
    94 -.32791939056847E-05
    95 -.30173603868694E-04
    96 0.55180275987516E-04
    97 0.76388630056170E-04
    98 -.59827638170943E-04
    99 0.45035447186543E-05
   100 -.24980476921230E-05
   101 0.50819081012224E-05
   102 -.25487296936174E-05
   103 0.49135615819233E-05
   104 -.77533060044027E-05
   105 -.34934095847554E-05
   106 -.15620789115492E-05
   107 0.93521082255853E-06
   108 -.62749642900952E-07
   109 -.17624720708525E+00
   110 -.25895656026586E+00
   111 -.15542842187430E-01
   112 0.13931867016569E-01
   113 -.40635389548113E-02
   114 -.55959015299600E-04
   115 0.83449159748173E-03
   116 -.33214808775693E-03
   117 0.11711366775348E-03
   118 -.24289870314859E-02
   119 0.90164587994985E-03
   120 -.28137194196619E-03
   121 0.24819101776477E-03
   122 -.30429756623351E-03
   123 -.65579394199756E-04
   124 0.59107414142400E-05
   125 0.59668652785516E-04
   126 -.23072441543318E-04
   127 -.39268596331975E-04
   128 0.98675241603479E-05
   129 0.37996352499083E-03
   130 -.22440588792493E-04
   131 -.35752293619833E-03
   132 0.12070979912241E-03
   133 0.22801861549978E-03
   134 -.85288634454527E-04
   135 0.23938393113650E-05
   136 0.15920567400133E-04
   137 -.14794882137815E-04
   138 -.13751389491034E-04
   139 -.34879801203752E-04
   140 0.20789536963006E-04
   141 0.10539717034580E-04
   142 0.13520118635513E-04
   143 -.94011965545521E-06
   144 -.12632475014196E-04
   145 0.34640162248312E-05
   146 -.14333640508204E-04
   147 0.91508821728090E-03
   148 -.98274688270474E-03
   149 0.29460403017160E-02
   150 -.10843397038330E-03
   151 -.10676790977672E-03
   152 -.12081992150593E-03
   153 0.19773587131151E-02
   154 -.19747523803972E-02
   155 0.13266673823652E-02
   156 -.17757999858256E-02
   157 -.41230154184039E-03
   158 0.54872877031086E-03
   159 -.58553022865723E-04
   160 0.74975746015857E-04
   161 -.16422723150134E-04
   162 0.72534140310820E-04
   163 -.66530698136369E-04
   164 0.58759629916245E-04
   165 -.10447618923438E-02
   166 0.40038244408319E-03
   167 0.64437944826062E-03
   168 0.31538302026680E-03
   169 -.37849198677554E-03
   170 0.18227061772765E-03
   171 0.19569494261600E-04
   172 0.22662041340100E-04
   173 -.32073751771234E-04
   174 0.50689396832776E-05
   175 -.38472112710244E-04
   176 0.68043065054209E-04
   177 -.31324171355815E-04
   178 0.80677937430197E-05
   179 -.25011611501849E-04
   180 -.34851700167430E-04
   181 0.38995034915157E-04
   182 -.21042571349848E-03
   183 -.59314711238604E-03
   184 0.40863370475934E-02
   185 -.16417685189092E-02
   186 -.39126014074587E-04
   187 0.32783561903855E-07
   188 0.85656830025697E-04
   189 -.54439956706002E-02
   190 -.44544539158022E-02
   191 -.62986384661166E-03
   192 0.22297962653342E-02
   193 0.89755495184188E-03
   194 0.19666193887621E-03
   195 0.13311571811943E-03
   196 0.25738021088551E-04
   197 -.15885373920798E-03
   198 0.22754598345313E-03
   199 -.24029599124322E-04
   200 0.53158714624702E-04
   201 0.10806143080457E-02
   202 -.26355067207801E-03
   203 -.81706363596769E-03
   204 0.20649460972207E-02
   205 0.48682591807008E-03
   206 -.20487605305298E-03
   207 -.58295700333878E-04
   208 0.48133544168796E-05
   209 0.18021343865953E-04
   210 -.51129887578951E-04
   211 -.71528265475799E-04
   212 0.15173208720652E-04
   213 0.12934177682446E-03
   214 0.65070472870234E-04
   215 -.39351378678754E-04
   216 -.20557200978015E-04
   217 -.17627859852677E-04
   218 -.24196429266436E-04
   219 -.14487401899316E-03
   220 0.16252058302903E-02
   221 -.99311826672813E-03
   222 -.59366017574184E-04
   223 0.15703836524429E-04
   224 0.27439652065919E-04
   225 -.38548011465743E-03
   226 -.47766499591556E-04
   227 -.66616561463432E-04
   228 -.18115058011093E-03
   229 -.44588498186420E-03
   230 -.27032838627474E-03
   231 0.20456041350018E-04
   232 0.25049739939365E-04
   233 -.45505781289383E-04
   234 0.10880112180057E-04
   235 -.19210447239574E-04
   236 0.23811714355748E-04
   237 -.27068794290772E-04
   238 -.11836567525840E-03
   239 0.14543446954918E-03
   240 -.49255948367268E-04
   241 0.59761106866823E-04
   242 -.92051993400153E-04
   243 0.14302284417895E-04
   244 -.76227288250529E-05
   245 0.14426068833704E-05
   246 -.15656524214531E-05
   247 0.11113650573594E-04
   248 0.42379054246766E-06
   249 -.17622875693717E-04
   250 -.88668667747525E-06
   251 -.23592507760828E-05
   252 0.25106099253601E-05
   253 0.39782503639803E+00
   254 0.58456247019269E+00
   255 0.34710742767846E-01
   256 -.30275333174753E-01
   257 0.70131699263133E-02
   258 -.71653678941038E-04
   259 0.18150885326145E-02
   260 0.64623290543812E-03
   261 -.22983545352871E-03
   262 -.49780403439442E-02
   263 -.16490580995288E-02
   264 -.44950295400635E-03
   265 -.19578101658913E-03
   266 0.38193565291314E-04
   267 0.17695423336483E-03
   268 -.45512366389457E-04
   269 -.13144186697538E-03
   270 0.37951771931583E-04
   271 -.72068752428913E-04
   272 0.30857482904465E-04
   273 -.10331684604194E-02
   274 0.24334255081165E-03
   275 0.78982590960779E-03
   276 -.20810616560462E-03
   277 0.42657068605922E-03
   278 -.20084911170124E-03
   279 0.79318762435260E-05
   280 0.47778632596354E-04
   281 0.29209450423524E-04
   282 -.23684224033535E-04
   283 -.92805494873957E-04
   284 -.42182844931987E-04
   285 0.13042495351752E-04
   286 0.28703732659497E-04
   287 0.29942548925414E-05
   288 0.27103138206528E-04
   289 0.31684708337444E-04
   290 0.45158245195645E-03
   291 0.96423057577268E-03
   292 -.11368737177906E-03
   293 0.95680922280750E-04
   294 -.77654434901692E-04
   295 0.51894376396574E-04
   296 0.13561705306491E-02
   297 0.13678956701438E-02
   298 0.63955502863068E-04
   299 0.98078052129113E-04
   300 -.85476943430599E-04
   301 -.10705793007803E-03
   302 -.13640985107547E-02
   303 -.57612706566949E-03
   304 0.42931816707552E-04
   305 0.83984247472978E-04
   306 0.16217588581332E-03
   307 0.19413720251316E-04
   308 0.24379123483684E-03
   309 0.14155767853232E-03
   310 -.22282772300951E-04
   311 -.70730169278995E-05
   312 0.11738584071537E-03
 Sym=     2a   
 Ene= -.19206978217378E+02
 Spin= Alpha
 Occup= 2.000000
     1 0.22276057658993E-04
     2 -.10947408714117E-03
     3 -.48385254198326E-03
     4 0.41933750705551E-02
     5 -.64872544417939E-02
     6 -.11172856267650E-03
     7 0.16871006489346E-03
     8 -.55808727646330E-04
     9 0.27181699574887E-02
    10 -.10245181590905E-03
    11 -.42662389126558E-03
    12 0.14094061793316E-02
    13 -.69537584274528E-03
    14 0.11284679846072E-02
    15 0.84929467628946E-04
    16 0.13264351914911E-04
    17 -.98193819543857E-04
    18 -.85673356716119E-04
    19 -.34780843747679E-04
    20 0.29198337771239E-05
    21 0.22513319876105E-04
    22 -.17113785381873E-03
    23 0.14862453394263E-03
    24 -.31274258436384E-03
    25 -.61322899599171E-03
    26 0.13249711675133E-03
    27 0.34237963543371E-04
    28 0.39149508005570E-04
    29 0.35292894974119E-04
    30 -.24170198944826E-04
    31 -.74026947244962E-04
    32 -.42856522900781E-04
    33 -.21764849391656E-04
    34 0.21502370533287E-04
    35 -.44938644701529E-05
    36 0.42836171478098E-04
    37 0.40920880836089E-04
    38 -.21943868161951E-03
    39 -.36829592160888E-03
    40 0.42131051067895E-02
    41 0.24537096733619E-02
    42 0.69618290620272E-04
    43 -.87288379441650E-05
    44 -.18142041073748E-05
    45 0.61048692789789E-02
    46 0.35049998747111E-02
    47 -.41362198457381E-03
    48 -.17207832984164E-02
    49 -.29928322454859E-02
    50 0.40225130982237E-03
    51 0.16156102651667E-03
    52 0.28566395227400E-05
    53 -.16441766603941E-03
    54 0.17052616924139E-03
    55 -.29384981565814E-04
    56 -.63069116709584E-04
    57 0.58723394872063E-03
    58 0.55512626252827E-04
    59 -.64274657497345E-03
    60 0.25673929846309E-02
    61 -.45456892184250E-03
    62 0.74810501894736E-04
    63 0.62179335868677E-04
    64 0.88572506243588E-07
    65 0.22202662562387E-04
    66 0.34456436741060E-04
    67 0.70983915267457E-04
    68 0.13266512461638E-04
    69 -.11787876981995E-03
    70 -.71102747754396E-04
    71 -.43054510124230E-04
    72 -.48315154241729E-04
    73 -.22732279164576E-04
    74 -.22557491426603E-04
    75 -.26947099387368E-03
    76 0.26044713921285E-02
    77 -.54526063279295E-03
    78 0.40387148285750E-04
    79 -.19023807097563E-04
    80 0.86501524161067E-08
    81 0.79000352431590E-03
    82 -.52527062860477E-04
    83 0.13266591688427E-03
    84 0.35500670713338E-03
    85 0.72955037162629E-03
    86 -.55635431807200E-04
    87 0.19881511937358E-04
    88 0.32797385421239E-04
    89 -.52678897358598E-04
    90 -.13889183949797E-05
    91 0.24941045114949E-05
    92 -.26989106019232E-04
    93 -.58796865889733E-05
    94 -.16497014727134E-03
    95 0.17084983386032E-03
    96 -.14539231328004E-04
    97 0.47317161740981E-05
    98 0.97472252545684E-04
    99 -.16231238039245E-04
   100 0.80828120562536E-05
   101 0.65130536821859E-05
   102 -.10375077538349E-06
   103 -.10862092845489E-04
   104 -.55395247419733E-05
   105 0.21880241744222E-04
   106 0.17862521206743E-07
   107 -.31986537227105E-05
   108 0.55974859008480E-05
   109 0.39782280791574E+00
   110 0.58458119923950E+00
   111 0.34528112000485E-01
   112 -.29699867137035E-01
   113 0.59618552166551E-02
   114 0.63642898123459E-04
   115 -.17207360044328E-02
   116 0.74663338653383E-03
   117 0.42235551974934E-03
   118 0.45767406268231E-02
   119 -.18859081848346E-02
   120 0.35825418900106E-03
   121 0.56681732543116E-03
   122 -.30741212156068E-03
   123 0.19489874490848E-03
   124 -.66851323938831E-04
   125 -.12804742096965E-03
   126 0.35912381286866E-04
   127 0.51525263468145E-04
   128 -.44825942622122E-04
   129 -.11379431185811E-02
   130 0.37054344079465E-03
   131 0.76739967778650E-03
   132 -.20476701931018E-03
   133 -.30913625392111E-03
   134 0.26317007751359E-03
   135 -.11916424823129E-04
   136 -.52971857557360E-04
   137 0.33304830628299E-04
   138 0.23783247240075E-04
   139 0.97121818578082E-04
   140 -.48133793119084E-04
   141 -.77956856681047E-05
   142 -.26052613942466E-04
   143 0.34506739606880E-05
   144 0.19011534695629E-04
   145 0.26944369488770E-04
   146 -.13485491953563E-03
   147 -.14829206380118E-02
   148 0.65522117279496E-02
   149 -.11429797571899E-01
   150 0.24785374035057E-03
   151 -.13519437040728E-03
   152 0.44707729671837E-04
   153 -.54722153594158E-02
   154 0.19002299942321E-02
   155 -.17208668149590E-02
   156 -.26405833150000E-03
   157 0.13998348738157E-02
   158 0.10034220325294E-02
   159 0.16925115633318E-03
   160 -.50866944950912E-04
   161 -.11838421138227E-03
   162 -.17887910867035E-03
   163 0.10873555238053E-03
   164 -.65157843883256E-04
   165 0.10041801541348E-02
   166 -.61035454159045E-03
   167 -.39382561254440E-03
   168 -.66344222975417E-03
   169 0.11971988065346E-02
   170 -.30865895289107E-03
   171 -.66373557278017E-04
   172 -.74181159857073E-04
   173 0.79159960257041E-04
   174 0.33530305475982E-04
   175 0.13321057259113E-03
   176 -.12310485338699E-03
   177 0.55519166113290E-04
   178 -.33686102937019E-04
   179 0.16900622048438E-04
   180 0.86391945393426E-04
   181 0.19875419065371E-04
   182 -.10541337050876E-03
   183 0.40399327058940E-04
   184 0.19879235319958E-02
   185 0.48015719320960E-02
   186 -.58781051162245E-04
   187 0.11309694569193E-04
   188 -.79153324426768E-04
   189 -.33138413295640E-02
   190 -.71170735237975E-03
   191 0.43169195531791E-03
   192 0.30724596891929E-03
   193 0.32482837737767E-02
   194 0.90904769663835E-04
   195 0.98302330061494E-04
   196 -.12017061533356E-04
   197 -.86285268528139E-04
   198 0.26861420911674E-04
   199 0.39027654358634E-04
   200 0.17312337106584E-04
   201 -.17104573347239E-03
   202 0.29733836076826E-03
   203 -.12629262729587E-03
   204 0.16184389382832E-02
   205 -.61653020339430E-04
   206 -.39164082453498E-04
   207 -.30162836715541E-04
   208 -.11141726250938E-04
   209 -.57648670847358E-05
   210 -.65488494124258E-05
   211 -.31228017515536E-04
   212 0.17442192445465E-04
   213 0.47016541386531E-04
   214 0.46176211885811E-04
   215 -.97078116358327E-05
   216 -.28503231005690E-04
   217 -.14677578361166E-04
   218 -.85022677687833E-05
   219 -.23216485032151E-03
   220 0.20415461132339E-02
   221 0.16459007511871E-03
   222 -.74985876084419E-06
   223 0.11432301752423E-04
   224 -.25350873901737E-04
   225 -.71327037916506E-03
   226 0.12514913360958E-03
   227 0.25407544985036E-03
   228 -.31561340204883E-03
   229 -.58275246545158E-03
   230 0.23517386799460E-03
   231 0.81617335064812E-05
   232 0.24787236983244E-04
   233 -.32948970489725E-04
   234 -.11414124450218E-04
   235 0.12098839900568E-04
   236 0.70221685400382E-05
   237 0.16418550277667E-04
   238 -.12682662438144E-03
   239 0.11040807410378E-03
   240 0.22684767546766E-04
   241 -.54344964674276E-04
   242 -.16936320290873E-04
   243 0.86077071048154E-05
   244 -.45070777610951E-05
   245 0.86098795398446E-05
   246 0.21121034359215E-05
   247 0.42964745357992E-05
   248 -.10271468377169E-04
   249 -.13660554365987E-04
   250 0.17504048164125E-05
   251 -.12798971803370E-05
   252 0.29987429830270E-05
   253 0.17624181857107E+00
   254 0.25899909792080E+00
   255 0.15131526084732E-01
   256 -.12638601404620E-01
   257 0.16844199179537E-02
   258 -.39818561312182E-05
   259 0.73200197791037E-03
   260 0.28856316771054E-03
   261 -.40502705816083E-03
   262 -.18007702665745E-02
   263 -.68209993729274E-03
   264 -.84554062004044E-04
   265 -.61053277908678E-03
   266 -.39637313622023E-03
   267 0.99664751020739E-04
   268 -.42782204352361E-04
   269 -.56882546668378E-04
   270 0.10779657945608E-04
   271 -.15488824285677E-04
   272 0.25455588359674E-04
   273 -.58468454798698E-03
   274 0.24586310603677E-03
   275 0.33882144195021E-03
   276 -.68003538582557E-04
   277 0.98607458433449E-04
   278 -.13098193298096E-03
   279 0.63818892306899E-05
   280 0.28730417053780E-04
   281 0.13421017007638E-04
   282 -.77155600327128E-05
   283 -.49422744408965E-04
   284 -.19065196913953E-04
   285 -.84664285410506E-06
   286 0.10876845076462E-04
   287 0.10590131001966E-05
   288 0.72727589112056E-05
   289 0.63878383971132E-04
   290 0.86156900441773E-03
   291 0.12743426173465E-02
   292 -.88957403360373E-04
   293 0.12623876437838E-03
   294 0.87546880095507E-04
   295 -.10211512553061E-03
   296 -.53541723370752E-03
   297 0.65021087872253E-03
   298 0.11049943795887E-04
   299 -.29854070258426E-05
   300 0.15510128893272E-03
   301 -.40812528287700E-04
   302 0.51468474913653E-03
   303 0.14002765476722E-02
   304 -.50223124346748E-04
   305 -.60243016979018E-04
   306 0.61872904468472E-04
   307 0.68634636696116E-04
   308 0.94128676055262E-03
   309 0.15919407182205E-02
   310 0.14271855078225E-03
   311 -.15690840473093E-03
   312 0.19175567520909E-04
 Sym=     3a   
 Ene= -.19140172466588E+02
 Spin= Alpha
 Occup= 2.000000
     1 0.18208831337966E-04
     2 -.87298973829082E-04
     3 0.10707655984477E-03
     4 0.23582425864200E-02
     5 0.11219653894163E-02
     6 -.49377785532821E-05
     7 0.97492346420019E-04
     8 -.95678947183918E-04
     9 -.11122514400161E-02
    10 0.19794404674963E-02
    11 0.15511557385436E-03
    12 -.11045411991398E-02
    13 0.12975839974054E-02
    14 -.19485054651612E-03
    15 0.13280526034782E-04
    16 0.43091159950125E-04
    17 -.56371685984907E-04
    18 -.33268764859370E-04
    19 0.18868125445834E-04
    20 -.37840783537267E-04
    21 -.67378015211962E-03
    22 0.30314272977304E-03
    23 0.37063742234658E-03
    24 -.42315416086892E-03
    25 0.70534513516337E-04
    26 -.21400175173965E-03
    27 0.24855085153865E-04
    28 0.72452650638719E-05
    29 0.33736359836341E-05
    30 -.35139443907291E-04
    31 -.31064028252039E-04
    32 0.23997555933010E-04
    33 0.17928479129380E-05
    34 0.21343485133346E-04
    35 -.28523763567457E-04
    36 0.54306054276735E-05
    37 0.46313189090761E-04
    38 -.27779148232349E-03
    39 0.12903226455122E-02
    40 0.33740102569493E-02
    41 -.30982715603912E-02
    42 -.69861252499157E-03
    43 0.21985581963637E-03
    44 -.10910572496387E-03
    45 -.94220060246361E-02
    46 0.47282128699814E-02
    47 -.22520093483095E-02
    48 0.72512326745188E-02
    49 -.24534458649898E-03
    50 0.60995241488419E-03
    51 0.13698550369862E-03
    52 -.44013787405026E-04
    53 -.92971716293597E-04
    54 -.12359421648030E-03
    55 0.61017702386463E-04
    56 -.41559157831027E-04
    57 0.23598707022461E-02
    58 -.15199055984060E-02
    59 -.83996510384009E-03
    60 -.20317676879064E-02
    61 0.91321184972012E-03
    62 0.26021802209216E-04
    63 -.28235179818387E-04
    64 0.55433821952077E-04
    65 0.25906659241368E-04
    66 -.38920036258830E-04