
   OpenMP run-time library returned nthreads =  4

 rdgrad (DESKTOP-T8QF9C0) : TURBOMOLE V7-8-1 24 Jan 2024 at 10:18:17 compiled  Jan 2024
 Copyright (C) 2024 TURBOMOLE GmbH, Karlsruhe


    2026-03-23 21:22:23.346 



                                 r d g r a d

                          gradient for ridft program 

                        by K.Eichkorn, O.Treutler, H.Oehm, 
                             M.Haeser and R.Ahlrichs
                  (Chemical Physics Letters 242 (1995) 652-660)
                    parallel version: M.v.Arnim  &  R.Ahlrichs
                            quantum chemistry group
                             university  karlsruhe
                                   germany




                          References             
                                                 
          Density Functional:                              
              O. Treutler and R. Ahlrichs                      
              Efficient Molecular Numerical Integration Schemes
              J. Chem. Phys. 102: 346 (1995)                   
          Parallel Version:                                
              Performance of parallel TURBOMOLE for Density    
              Functional Calculations                          
              M. v. Arnim and R. Ahlrichs                      
              J. Comp. Chem. 19: 1746 (1998)                   
          RI-J Method:                                     
              Auxiliary Basis Sets to approximate Coulomb      
              Potentials                                       
              Chem. Phys. Lett. 240: 283 (1995)                
              K. Eichkorn, O. Treutler, H. Oehm, M. Haeser     
              and R. Ahlrichs                                  
              Chem. Phys. Lett. 242: 652 (1995)                
                                                           
              Auxiliary Basis Sets for Main Row Atoms and their
              Use to approximate Coulomb Potentials            
              K. Eichkorn, F. Weigend, O. Treutler and         
              R. Ahlrichs                                      
              Theo. Chem. Acc. 97: 119 (1997)                  
          Relativistic Two-component ECP formalism             
              Efficient two-component self-consistent field    
              procedures and gradients: implementation in      
              TURBOMOLE and application to Au20-               
              A. Baldes and F. Weigend                         
              Mol. Phys. 111: 2617 (2013)                      
          Relativistic all-electron 2c calculations (X2C, DLU) 
              Efficient implementation of one- and two-component
              analytical energy gradients in exact two-component
              theory                                           
              Y. J. Franzke, N. Middendorf and F. Weigend      
              J. Chem. Phys. 148: 104110 (2018)                
          Exploitation of symmetry in scalar X2C response      
              NMR shielding tensors and chemical shifts in     
              scalar-relativistic local exact two-component    
              theory                                           
              Y. J. Franzke and F. Weigend                     
              J. Chem. Theory Comput. 15: 1028 (2019)          
                                                              





          OpenMP Shared-Memory Parallelization:  4 CPUs.

            By: Yannick J. Franzke and Christof Holzer
 

 integral neglect threshold       :  0.49E-11
 integral storage threshold THIZE :  0.10E-04
 integral storage threshold THIME :         5

 Becke-3-Parameter hybrid functional: B3-LYP
 exchange:    0.8*LDA + 0.72*B88 + 0.2*HF
 correlation: 0.19*LDA(VWN) + 0.81*LYP
 A Hybrid-DFT calculation using the RI-J approximation will be carried out.
  
  
 AUXILIARY BASIS SET information:

 symmetry group of the molecule :   c1 

 the group has the following generators :
   c1(z)

    1 symmetry operations found

 there are 1 real representations :   a   

 maximum number of shells which are related by symmetry :  1


    mo occupation :
   irrep   mo's   occupied
    a      598       65
 
 number of basis functions   :   598
 number of occupied orbitals :    65
 

 number of off-diagonal lagrangians expected :  0

 biggest AO integral is expected to be     9.804440325
  
           ------------------
           density functional
           ------------------
 Becke-3-Parameter hybrid functional: B3-LYP
 exchange:    0.8*LDA + 0.72*B88 + 0.2*HF
 correlation: 0.19*LDA(VWN) + 0.81*LYP
 iterations will be done with small grid
  
 spherical integration : Lebedev's spherical grid
 spherical gridsize    :                     3
    i.e. gridpoints    :                   302
  maximum batchsize    :                   100
 value for diffuse not defined
 radial integration    : Chebyshev 2nd kind (scaling 3)
 radial gridsize       :                     3
 integration cells     :                    32
 partition function    : becke
 partition sharpness   :                     3
  
  
           ------------------------
             RDGRAD - INFORMATION
           ------------------------
  
 Threshold for integral neglect (rithr1): 1E-10
 Threshold for integral neglect (rithr2): 1E-10
 Contributions to RI integral batches: 
  neglected integral batches:                  8980
  direct contribution:                        20423
     
 ****************************************
 Memory allocated for RDGRAD: 13 MiB
 ****************************************
                                            
     

 nuclear repulsion energy  :   1236.84698256    

  MOs are in ASCII format !


 reading orbital data $scfmo  from file mos
 orbital characterization : scfconv=7
  Deviation of MOs from orthonormality   2.794979807492493E-011

    ----------------------------------------
     S+T+V CONTRIBUTIONS TO ENERGY GRADIENT 
    ----------------------------------------

 1e-integral 1st. derivatives will be neglected if expon. factor < 0.987490E-14


 setting up bound for integral derivative estimation

 increment for numerical differentiation : 0.00050000

 biggest AO integral is expected to be     9.804440325
 biggest cartesian 1st derivative AO integral is expected to be    25.364389886

 biggest 1-particle AO density matrix element is expected to be    2.1766768219

 setting up bound for integral derivative estimation

 increment for numerical differentiation : 0.00050000

 biggest AO integral is expected to be     9.804440325
 biggest cartesian 1st derivative AO integral is expected to be    25.364389886

 2e-integral 1st. derivatives will be neglected if expon. factor < 0.100000E-06
 outer boundary for 2e-integral derivative neglection is 0.351772E-08

          Overall gridpoints after grid construction =        152966

 Integrated ground state density     :   129.9998429678467    


          ------------------------------------------------
           cartesian gradient of the energy (hartree/bohr)
          ------------------------------------------------

  ATOM      1 c           2 c           3 c           4 c           5 s 
dE/dx -0.3337214D-05 -0.4430974D-04  0.5022404D-04 -0.1201793D-04  0.1349061D-05
dE/dy  0.2220620D-04 -0.2287457D-04  0.5239657D-04  0.1126348D-04 -0.2096794D-04
dE/dz -0.2990755D-04  0.4434402D-04 -0.2565528D-04  0.2440770D-04  0.2930599D-04

  ATOM      6 c           7 c           8 c           9 c          10 c 
dE/dx -0.7897906D-05 -0.1823337D-04 -0.1045014D-04  0.6076419D-05  0.4862318D-04
dE/dy  0.4371592D-04  0.1981685D-04  0.1334422D-04 -0.1244229D-04 -0.1887091D-04
dE/dz -0.4567081D-05 -0.7815489D-06 -0.3347368D-04  0.3405094D-05 -0.1966548D-04

  ATOM     11 o          12 o          13 n          14 c          15 o 
dE/dx  0.3742090D-04 -0.2647233D-04  0.8561238D-04 -0.2108203D-03  0.4194562D-04
dE/dy -0.1709036D-04 -0.2874789D-04  0.3369017D-04 -0.9768459D-05  0.4446735D-04
dE/dz  0.4077371D-04  0.9982055D-05  0.5017001D-04 -0.1138289D-03 -0.2940648D-05

  ATOM     16 n          17 h          18 h          19 h          20 h 
dE/dx  0.4719711D-04 -0.2582357D-05  0.1374389D-04 -0.3076903D-05 -0.5189270D-04
dE/dy -0.2897268D-04 -0.3564426D-05 -0.7339707D-05  0.8497394D-05  0.1282580D-04
dE/dz  0.3553081D-05  0.7992426D-05 -0.4270307D-04 -0.6057471D-04  0.7353785D-04

  ATOM     21 h          22 h          23 h          24 h          25 h 
dE/dx -0.7512410D-05  0.1161758D-04 -0.3535179D-05 -0.1493268D-04 -0.3922217D-05
dE/dy -0.4595125D-06  0.2078266D-04  0.2357345D-04 -0.8679605D-05  0.2027516D-04
dE/dz -0.3817681D-04 -0.1897341D-04  0.2633178D-04  0.3245450D-04 -0.3919921D-04

  ATOM     26 h          27 h          28 h          29 h          30 h 
dE/dx -0.1899342D-04  0.3779630D-04 -0.2550315D-04 -0.1386972D-04  0.4035318D-05
dE/dy -0.1587090D-04 -0.2969305D-04 -0.1368896D-04 -0.6364419D-05  0.6123539D-04
dE/dz -0.2286232D-04  0.3614384D-04 -0.1869927D-05 -0.8705086D-05  0.4831265D-04

  ATOM     31 h          32 h 
dE/dx  0.2260918D-04  0.2981063D-04
dE/dy -0.3906641D-05  0.5156363D-05
dE/dz  0.1815393D-04  0.3376633D-04
 
 resulting FORCE  (fx,fy,fz) = (-.413D-04,0.144D-03,0.188D-04)
 resulting MOMENT (mx,my,mz) = (0.382D-03,0.101D-02,0.450D-03)


 exx =      -0.000277 eyy =       0.000423 ezz =       0.000446
 eyz =      -0.000131 exz =      -0.000584 exy =       0.000349


 **********************************************************************
  |maximum component of gradient| : 0.21082028E-03  (atom 14 c )       
   gradient norm                  : 0.37116805E-03
 **********************************************************************
   ***  cartesian gradients written onto <gradient>  ***


     --- calculation of the energy gradient finished ---



    ------------------------------------------------------------------------
         total  cpu-time :  3 minutes and  5 seconds
         total wall-time :  49.26 seconds
    ------------------------------------------------------------------------

   ****  rdgrad : all done  ****


    2026-03-23 21:23:12.593 

 rdgrad ended normally

 statpt (DESKTOP-T8QF9C0) : TURBOMOLE V7-8-1 24 Jan 2024 at 10:18:17 compiled  Jan 2024
 Copyright (C) 2024 TURBOMOLE GmbH, Karlsruhe


    2026-03-23 21:23:12.693 



                           this is S T A T P T   


                     hessian and coordinate update for
                          stationary point search 

                     by barbara unterreiner, marek sierka,
                           and reinhart ahlrichs

                          quantum chemistry group
                          universitaet  karlsruhe
                                  germany




              +--------------------------------------------------+
              | Atomic coordinate, charge and isotop information |
              +--------------------------------------------------+

                    atomic coordinates            atom    charge  isotop
          6.18645292   -2.38491486    0.62551461    c      6.000     0
          5.61081209    0.46498752    0.76290980    c      6.000     0
          3.07448838    1.00568852   -0.67141864    c      6.000     0
          2.10894935   -1.47463787   -1.85990781    c      6.000     0
          3.13851675   -3.95766438    0.33903692    s     16.000     0
         -0.70990934   -1.57121306   -2.49958294    c      6.000     0
         -2.56142640   -1.36071015   -0.28733158    c      6.000     0
         -5.31433301   -1.48486016   -1.16735006    c      6.000     0
         -7.23172316   -1.21403493    0.97193040    c      6.000     0
         -7.38370527    1.41680734    2.06895540    c      6.000     0
         -6.39832471    3.28722819    1.22610917    o      8.000     0
         -8.84325399    1.47163479    4.17107569    o      8.000     0
          3.79652097    2.91315137   -2.50574703    n      7.000     0
          6.27708555    3.69319075   -2.25843612    c      6.000     0
          7.27894660    5.44428127   -3.34025772    o      8.000     0
          7.41048202    2.05258807   -0.56430694    n      7.000     0
          7.15612275   -3.08442451    2.30069272    h      1.000     0
          7.34542541   -2.78695037   -1.03230970    h      1.000     0
          5.43261511    1.02209677    2.74357821    h      1.000     0
          1.66160477    1.73101818    0.64441591    h      1.000     0
          3.16758368   -1.75928298   -3.61176813    h      1.000     0
         -1.08843086   -0.04628027   -3.85025950    h      1.000     0
         -1.07653051   -3.32829700   -3.52692230    h      1.000     0
         -2.20376719   -2.88007547    1.06781573    h      1.000     0
         -2.26334467    0.41438746    0.72285188    h      1.000     0
         -5.66303940   -0.00951325   -2.57031961    h      1.000     0
         -5.64788870   -3.29434023   -2.11074433    h      1.000     0
         -9.13728486   -1.67953858    0.31341168    h      1.000     0
         -6.84374782   -2.53268330    2.51508929    h      1.000     0
         -8.89659496    3.21318644    4.74397568    h      1.000     0
          2.55403307    4.13051769   -3.26940429    h      1.000     0
          9.06366541    2.58865701    0.20465948    h      1.000     0
 
       center of nuclear mass  :    0.50917631    0.25615645   -0.22838738
       center of nuclear charge:    0.45280615    0.21002305   -0.23241468
  Keyword $statpt not found - using default options
 
        ***************  Stationary point options ******************
        ************************************************************
           Maximum allowed trust radius:           3.000000E-01
           Minimum allowed trust radius:           1.000000E-03
           Initial trust radius:                   1.500000E-01
           GDIIS used if gradient norm <           1.000000E-02
           Number of previous steps for GDIIS:       5
           Hessian update method:                  BFGS
                        *** Convergence criteria ***                
           Threshold for energy change:            1.000000E-06
           Threshold for max displacement element: 1.000000E-03
           Threshold for max gradient element :    1.000000E-03
           Threshold for RMS of displacement:      5.000000E-04
           Threshold for RMS of gradient:          5.000000E-04
        ************************************************************
 

  Keyword $statp missing in file <control>

  Keyword $statpt not found - using default options
  *************************************************************************
   ATOM                      CARTESIAN COORDINATES
    1 c       6.18645292233409     -2.38491485507515      0.62551461083147
    2 c       5.61081208924113      0.46498752439421      0.76290980008988
    3 c       3.07448838200456      1.00568852307278     -0.67141863950661
    4 c       2.10894935041462     -1.47463787145665     -1.85990780827845
    5 s       3.13851674697404     -3.95766438396136      0.33903692345602
    6 c      -0.70990933596107     -1.57121306381088     -2.49958293812562
    7 c      -2.56142640119260     -1.36071014761926     -0.28733157612388
    8 c      -5.31433300897885     -1.48486015504690     -1.16735005776471
    9 c      -7.23172315706994     -1.21403492838462      0.97193040153823
   10 c      -7.38370527332546      1.41680733808994      2.06895540177107
   11 o      -6.39832470579745      3.28722818546416      1.22610916522273
   12 o      -8.84325399465397      1.47163479051882      4.17107568685740
   13 n       3.79652097024795      2.91315137332109     -2.50574703326077
   14 c       6.27708555386135      3.69319075451982     -2.25843612076165
   15 o       7.27894659855296      5.44428126671549     -3.34025772337741
   16 n       7.41048202484476      2.05258806604643     -0.56430693578156
   17 h       7.15612275134122     -3.08442450835165      2.30069272016698
   18 h       7.34542541329623     -2.78695037037635     -1.03230969579468
   19 h       5.43261510583080      1.02209676733783      2.74357821248587
   20 h       1.66160476505373      1.73101817547358      0.64441590996458
   21 h       3.16758368071675     -1.75928298438903     -3.61176812524116
   22 h      -1.08843086141496     -0.04628026981971     -3.85025950349178
   23 h      -1.07653051081424     -3.32829700476517     -3.52692229794566
   24 h      -2.20376718706063     -2.88007547130490      1.06781572510305
   25 h      -2.26334466817787      0.41438746328661      0.72285188409819
   26 h      -5.66303939615758     -0.00951325219129     -2.57031960788696
   27 h      -5.64788869783155     -3.29434022601810     -2.11074433494792
   28 h      -9.13728486008761     -1.67953858195596      0.31341167797818
   29 h      -6.84374781595572     -2.53268329518350      2.51508929344214
   30 h      -8.89659495623205      3.21318643939300      4.74397567568761
   31 h       2.55403306778241      4.13051769210617     -3.26940428529832
   32 h       9.06366540821382      2.58865700996493      0.20465948439881
  *************************************************************************
   ATOM                      CARTESIAN GRADIENTS  
    1 c      -0.00000333721428      0.00002220619580     -0.00002990755340
    2 c      -0.00004430974170     -0.00002287456924      0.00004434401823
    3 c       0.00005022404448      0.00005239656765     -0.00002565527788
    4 c      -0.00001201792879      0.00001126347915      0.00002440770357
    5 s       0.00000134906127     -0.00002096793848      0.00002930598996
    6 c      -0.00000789790619      0.00004371592120     -0.00000456708096
    7 c      -0.00001823337090      0.00001981684654     -0.00000078154890
    8 c      -0.00001045014278      0.00001334422278     -0.00003347368316
    9 c       0.00000607641873     -0.00001244229345      0.00000340509416
   10 c       0.00004862318455     -0.00001887091271     -0.00001966547641
   11 o       0.00003742089861     -0.00001709035900      0.00004077370770
   12 o      -0.00002647232720     -0.00002874788736      0.00000998205488
   13 n       0.00008561238305      0.00003369016708      0.00005017000703
   14 c      -0.00021082028449     -0.00000976845888     -0.00011382891071
   15 o       0.00004194561584      0.00004446735141     -0.00000294064784
   16 n       0.00004719711086     -0.00002897268381      0.00000355308087
   17 h      -0.00000258235696     -0.00000356442619      0.00000799242614
   18 h       0.00001374388978     -0.00000733970656     -0.00004270306516
   19 h      -0.00000307690260      0.00000849739422     -0.00006057470601
   20 h      -0.00005189269521      0.00001282580387      0.00007353785273
   21 h      -0.00000751241021     -0.00000045951245     -0.00003817681176
   22 h       0.00001161758394      0.00002078266047     -0.00001897341099
   23 h      -0.00000353517893      0.00002357344553      0.00002633177867
   24 h      -0.00001493267869     -0.00000867960511      0.00003245450466
   25 h      -0.00000392221747      0.00002027516053     -0.00003919920889
   26 h      -0.00001899341500     -0.00001587090375     -0.00002286232384
   27 h       0.00003779630394     -0.00002969305304      0.00003614383879
   28 h      -0.00002550314528     -0.00001368896161     -0.00000186992721
   29 h      -0.00001386971542     -0.00000636441898     -0.00000870508616
   30 h       0.00000403531799      0.00006123539388      0.00004831264534
   31 h       0.00002260917617     -0.00000390664089      0.00001815392884
   32 h       0.00002981063384      0.00000515636252      0.00003376632734
  *************************************************************************

  norm of actual CARTESIAN gradient:  3.71168E-04

  ENERGY =   -1123.9523144370 a.u.; # of cycle =  218

  Approximate Hessian read from $hessapprox data section

  Hessian updated according to BFGS formula
  Number of zero Hessian eigenvalues:   6
  Number of structures for GDIIS interpolation:    5
  GDIIS step:     0.002336

      ****************************************************************** 
                          CONVERGENCE INFORMATION

                               Converged?     Value      Criterion
             Energy change         yes      0.0000003   0.0000010
             RMS of displacement   yes      0.0002384   0.0005000
             RMS of gradient       yes      0.0000379   0.0005000
             MAX displacement      yes      0.0006308   0.0010000
             MAX gradient          yes      0.0002108   0.0010000
      ****************************************************************** 


    ------------------------------------------------------------------------
         total  cpu-time :   0.16 seconds
         total wall-time :   0.14 seconds
    ------------------------------------------------------------------------

   ****  statpt : all done  ****


    2026-03-23 21:23:12.822 

  statpt ended normally

   OpenMP run-time library returned nthreads =  4

 ridft (DESKTOP-T8QF9C0) : TURBOMOLE V7-8-1 24 Jan 2024 at 10:18:17 compiled  Jan 2024
 Copyright (C) 2024 TURBOMOLE GmbH, Karlsruhe


    2026-03-23 21:23:12.909 



                                  r i d f t

                        DFT program with RI approximation 
                                for coulomb part 





                                 References:     
                                                 
          TURBOMOLE:                             
              R. Ahlrichs, M. Baer, M. Haeser, H. Horn, and
              C. Koelmel
              Electronic structure calculations on workstation
              computers: the program system TURBOMOLE
              Chem. Phys. Lett. 162: 165 (1989)
          Density Functional:                              
              O. Treutler and R. Ahlrichs                      
              Efficient Molecular Numerical Integration Schemes
              J. Chem. Phys. 102: 346 (1995)                   
          Parallel Version:                                
              Performance of parallel TURBOMOLE for Density    
              Functional Calculations                          
              M. v. Arnim and R. Ahlrichs                      
              J. Comp. Chem. 19: 1746 (1998)                   
          RI-J Method:                                     
              Auxiliary Basis Sets to approximate Coulomb      
              Potentials                                       
              Chem. Phys. Lett. 240: 283 (1995)                
              K. Eichkorn, O. Treutler, H. Oehm, M. Haeser     
              and R. Ahlrichs                                  
              Chem. Phys. Lett. 242: 652 (1995)                
                                                           
              Auxiliary Basis Sets for Main Row Atoms and their
              Use to approximate Coulomb Potentials            
              K. Eichkorn, F. Weigend, O. Treutler and         
              R. Ahlrichs                                      
              Theo. Chem. Acc. 97: 119 (1997)                  
                                                           
              Accurate Coulomb-fitting basis sets for H to Rn 
              F. Weigend                                       
              Phys. Chem. Chem. Phys. 8: 1057 (2006)           
                                                           
          Multipole accelerated RI-J (MARI-J):             
              Fast evaluation of the Coulomb potential for     
              electron densities using multipole accelerated   
              resolution of identity approximation             
              M. Sierka, A. Hogekamp and R. Ahlrichs           
              J. Chem. Phys. 118: 9136 (2003)                  
          RI-JK Method:                                     
              A fully direct RI-HF algorithm: Implementation,
              optimised auxiliary basis sets, demonstration of
              accuracy and efficiency                         
              F. Weigend                                      
              Phys. Chem. Chem. Phys. 4: 4285 (2002)           
          Two-component HF and DFT with spin-orbit coupling:  
              Self-consistent treatment of spin-orbit         
              interactions with efficient Hartree-Fock and    
              density functional methods                      
              M. K. Armbruster, F. Weigend, C. van Wüllen and 
              W. Klopper                                      
              Phys. Chem. Chem. Phys. 10: 1748 (2008)         
          Two-component difference density and DIIS algorithm 
              Efficient two-component self-consistent field   
              procedures and gradients: implementation in     
              TURBOMOLE and application to Au20-              
              A. Baldes, F. Weigend                           
              Mol. Phys. 111: 2617 (2013)                     
          Relativistic current density functional theory      
              Current density functional framework for        
              spin-orbit coupling                             
              C. Holzer, Y. J. Franzke, A. Pausch             
              J. Chem. Phys. 157: 204102 (2022)               
          Relativistic all-electron 2c calculations           
              An efficient implementation of two-component    
              relativistic exact-decoupling methods for large 
              molecules                                       
              D. Peng, N. Middendorf, F. Weigend, M. Reiher   
              J. Chem. Phys. 138: 184105 (2013)               
          Finite nucleus model and SNSO approximation         
              Efficient implementation of one- and two-       
              component analytical energy gradients in exact  
              two-component theory                            
              Y. J. Franzke, N. Middendorf, F. Weigend        
              J. Chem. Phys. 148: 104110 (2018)               
          Grids for all-electron relativistic methods         
              Error-consistent segmented contracted all-      
              electron relativistic basis sets of double-     
              and triple-zeta quality for NMR shielding       
              constants                                       
              Y. J. Franzke, R. Tress, T. M. Pazdera,         
              F. Weigend                                      
              Phys. Chem. Chem. Phys. 21: 166658 (2019)       
          Seminumerical exchange algorithms                   
              Seminumerical calculation of the Hartree-Fock   
              exchange matirx: Application to two-component   
              procedures and efficient evaluation of local    
              hybrid functionsl                               
              P. Plessow, F. Weigend,                         
              J. Comput. Chem. 33: 810 (2012)                 
          Improved seminumerical algorithms                   
              C. Holzer,                                      
              J. Chem. Phys. 153 (2020), 184115               






          OpenMP Shared-Memory Parallelization:  4 CPUs.

            By: Christof Holzer and Yannick J. Franzke


              +--------------------------------------------------+
              |      general information about current run       |
              +--------------------------------------------------+

 
 Becke-3-Parameter hybrid functional: B3-LYP
 exchange:    0.8*LDA + 0.72*B88 + 0.2*HF
 correlation: 0.19*LDA(VWN) + 0.81*LYP
 A Hybrid-DFT calculation using the RI-J approximation will be carried out.
 Allocatable memory for RI due to $ricore (MB):                  5000


              +--------------------------------------------------+
              | Atomic coordinate, charge and isotop information |
              +--------------------------------------------------+

                    atomic coordinates            atom    charge  isotop
          6.18656247   -2.38482392    0.62532524    c      6.000     0
          5.61081861    0.46501658    0.76292910    c      6.000     0
          3.07454537    1.00554113   -0.67164338    c      6.000     0
          2.10896695   -1.47481217   -1.85992515    c      6.000     0
          3.13876825   -3.95773230    0.33893509    s     16.000     0
         -0.70993038   -1.57154158   -2.49947375    c      6.000     0
         -2.56144250   -1.36067470   -0.28724553    c      6.000     0
         -5.31436985   -1.48470940   -1.16719637    c      6.000     0
         -7.23185362   -1.21402779    0.97201934    c      6.000     0
         -7.38396442    1.41678361    2.06910799    c      6.000     0
         -6.39854509    3.28716662    1.22616739    o      8.000     0
         -8.84346142    1.47167563    4.17117636    o      8.000     0
          3.79680945    2.91271053   -2.50622586    n      7.000     0
          6.27736774    3.69328693   -2.25804476    c      6.000     0
          7.27898848    5.44458241   -3.33962690    o      8.000     0
          7.41047381    2.05271255   -0.56395362    n      7.000     0
          7.15663024   -3.08449452    2.30016077    h      1.000     0
          7.34518791   -2.78643787   -1.03276613    h      1.000     0
          5.43235610    1.02205707    2.74366130    h      1.000     0
          1.66175953    1.73110104    0.64393019    h      1.000     0
          3.16750493   -1.75932754   -3.61178945    h      1.000     0
         -1.08854279   -0.04673508   -3.85025036    h      1.000     0
         -1.07640955   -3.32875464   -3.52667311    h      1.000     0
         -2.20390424   -2.87984164    1.06807315    h      1.000     0
         -2.26323334    0.41451117    0.72277176    h      1.000     0
         -5.66301191   -0.00914228   -2.56996657    h      1.000     0
         -5.64791329   -3.29403486   -2.11092761    h      1.000     0
         -9.13733045   -1.67949175    0.31341472    h      1.000     0
         -6.84392122   -2.53272489    2.51513795    h      1.000     0
         -8.89684881    3.21324193    4.74384175    h      1.000     0
          2.55439183    4.13016277   -3.27002807    h      1.000     0
          9.06355118    2.58875694    0.20504040    h      1.000     0
 
       center of nuclear mass  :    0.50919993    0.25613629   -0.22833288
       center of nuclear charge:    0.45282769    0.21000554   -0.23236779

              +--------------------------------------------------+
              |               basis set information              |
              +--------------------------------------------------+

              we will work with the 1s 3p 5d 7f 9g ... basis set
              ...i.e. with spherical basis functions...

   type   atoms  prim   cont   basis
   ---------------------------------------------------------------------------
    c       10     46     31   def2-TZVP   [5s3p2d1f|11s6p2d1f]
    s        1     63     37   def2-TZVP   [5s5p2d1f|14s9p3d1f]
    o        3     46     31   def2-TZVP   [5s3p2d1f|11s6p2d1f]
    n        2     46     31   def2-TZVP   [5s3p2d1f|11s6p2d1f]
    h       16      8      6   def2-TZVP   [3s1p|5s1p]
   ---------------------------------------------------------------------------
   total:   32    881    598
   ---------------------------------------------------------------------------

   total number of primitive shells          :   93
   total number of contracted shells         :  242
   total number of cartesian basis functions :  678
   total number of SCF-basis functions       :  598


 integral neglect threshold       :  0.49E-11
 integral storage threshold THIZE :  0.10E-04
 integral storage threshold THIME :         5

 RI-J AUXILIARY BASIS SET information:

              we will work with the 1s 3p 5d 7f 9g ... basis set
              ...i.e. with spherical basis functions...

   type   atoms  prim   cont   basis
   ---------------------------------------------------------------------------
    c       10     70     49   def2-TZVP   [6s4p3d1f1g|12s5p4d2f1g]
    s        1     77     51   def2-TZVP   [8s4p3d1f1g|14s5p5d2f1g]
    o        3     70     49   def2-TZVP   [6s4p3d1f1g|12s5p4d2f1g]
    n        2     70     49   def2-TZVP   [6s4p3d1f1g|12s5p4d2f1g]
    h       16     16     11   def2-TZVP   [3s1p1d|5s2p1d]
   ---------------------------------------------------------------------------
   total:   32   1383    962
   ---------------------------------------------------------------------------

   total number of primitive shells          :  107
   total number of contracted shells         :  322
   total number of cartesian basis functions : 1170
   total number of SCF-basis functions       :  962


 symmetry group of the molecule :   c1 

 the group has the following generators :
   c1(z)

    1 symmetry operations found

 there are 1 real representations :   a   

 maximum number of shells which are related by symmetry :  1

  
           ------------------
           density functional
           ------------------
 Becke-3-Parameter hybrid functional: B3-LYP
 exchange:    0.8*LDA + 0.72*B88 + 0.2*HF
 correlation: 0.19*LDA(VWN) + 0.81*LYP
 iterations will be done with small grid
  
 spherical integration : Lebedev's spherical grid
 spherical gridsize    :                     3
    i.e. gridpoints    :                   302
  maximum batchsize    :                   100
 value for diffuse not defined
 radial integration    : Chebyshev 2nd kind (scaling 3)
 radial gridsize       :                     3
 integration cells     :                    32
 partition function    : becke
 partition sharpness   :                     3
  

 biggest AO integral is expected to be     9.804440325

          ------------------------
          nuclear repulsion energy  :   1236.84481419    
          ------------------------


         -----------------
         -S,T+V- integrals
         -----------------

 1e-integrals will be neglected if expon. factor < 0.492915E-12
 
 Difference densities algorithm switched on.
 The maximal number of linear combinations of
 difference densities is  20.

 DIIS switched on: error vector is FDS-SDF
 Max. Iterations for DIIS is     :   4
 DIIS matrix (see manual) 
    Scaling factor of diagonals  :  1.200
    threshold for scaling factor :  0.000

 scf convergence criterion : increment of total energy < .1000000D-06
                  and increment of one-electron energy < .1000000D-03

 MOs are in ASCII format !


    mo occupation :
   irrep   mo's   occupied
    a      598       65
 
 number of basis functions   :   598
 number of occupied orbitals :    65
 

 reading orbital data $scfmo  from file mos
 orbital characterization : scfconv=7
 mo-orthogonalization by Cholesky decomposition

 automatic virtual orbital shift switched on 
      shift if e(lumo)-e(homo) < 0.10000000    

  
           ------------------------
               RI-J - INFORMATION
           ------------------------
 Contributions to RI integral batches: 
  neglected integral batches:                  8980
  direct contribution:                            0
  memory contribution:                 20423
 Memory core needed for (P|Q) and Cholesky      8 MByte
 Memory core minimum needed except of (P|Q)     2 MByte
 Total minimum memory core needed (sum)         9 MByte
  
 ****************************************
 Memory allocated for RI-J  1394 MByte
 ****************************************
                                            

 DSCF restart information will be dumped onto file mos


 Starting SCF iterations

          Overall gridpoints after grid construction =         41402

 ITERATION  ENERGY          1e-ENERGY        2e-ENERGY     NORM[dD(SAO)]  TOL
   1  -1123.9518940092    -3995.6997141     1634.9030059    0.000D+00 0.492D-11
                            Exc = -101.240325721     Coul =  1760.27384350    
                            exK = -24.1305118572    
                              N = 129.99713027    
                            current damping = 0.300
 
          max. resid. norm for Fia-block=  9.613D-05 for orbital     64a         
          max. resid. fock norm         =  1.872D-03 for orbital    594a         

 ITERATION  ENERGY          1e-ENERGY        2e-ENERGY     NORM[dD(SAO)]  TOL
   2  -1123.9518941561    -3995.7003657     1634.9036573    0.883D-03 0.312D-11
                            Exc = -101.240379479      Eck =  1736.14403679    
                              N = 129.99713016    
                            current damping = 0.250
 
          Norm of current diis error: 0.40186E-03
          max. resid. norm for Fia-block=  3.551D-05 for orbital     64a         
          max. resid. fock norm         =  4.464D-04 for orbital    594a         

 ITERATION  ENERGY          1e-ENERGY        2e-ENERGY     NORM[dD(SAO)]  TOL
   3  -1123.9518941667    -3995.6999777     1634.9032693    0.191D-03 0.250D-11
                            Exc = -101.240339630      Eck =  1736.14360897    
                              N = 129.99713018    
                            current damping = 0.300
 
          Norm of current diis error: 0.33650E-03
          max. resid. norm for Fia-block=  1.474D-05 for orbital     64a         
          max. resid. fock norm         =  9.518D-05 for orbital    594a         

 ENERGY CONVERGED !

          Overall gridpoints after grid construction =        152968

 ITERATION  ENERGY          1e-ENERGY        2e-ENERGY     NORM[dD(SAO)]  TOL
   4  -1123.9523146119    -3995.7000760     1634.9029472    0.775D-04 0.238D-11
                            Exc = -101.240779605      Eck =  1736.14372679    
                              N = 129.99984283    
                            current damping = 0.350
 
          Norm of current diis error: 0.53499E-04
          max. resid. norm for Fia-block=  2.938D-06 for orbital     62a         
          max. resid. fock norm         =  2.007D-05 for orbital    594a         

 End of SCF iterations

   convergence criteria satisfied after     4 iterations


                  ------------------------------------------ 
                 |  total energy      =  -1123.95231461193  |
                  ------------------------------------------ 
                 :  kinetic energy    =   1120.23295396978  :
                 :  potential energy  =  -2244.18526858171  :
                 :  virial theorem    =      1.99669081989  :
                 :  wavefunction norm =      1.00000000000  :
                  .......................................... 


 orbitals $scfmo  will be written to file mos

    irrep                 61a         62a         63a         64a         65a   
 eigenvalues H         -0.29221    -0.26737    -0.26408    -0.25237    -0.23216
            eV          -7.9516     -7.2756     -7.1859     -6.8675     -6.3175
 occupation              2.0000      2.0000      2.0000      2.0000      2.0000

    irrep                 66a         67a         68a         69a         70a   
 eigenvalues H         -0.00724     0.00518     0.01725     0.02527     0.03706
            eV          -0.1970      0.1409      0.4695      0.6875      1.0086
 
 
 
 
 ==============================================================================
                           electrostatic moments
 ==============================================================================

 reference point for electrostatic moments:    0.00000   0.00000   0.00000

 
              nuc           elec       ->  total
 ------------------------------------------------------------------------------
                          charge      
 ------------------------------------------------------------------------------
         130.000000    -130.000000      -0.000000
 
 ------------------------------------------------------------------------------
                       dipole moment  
 ------------------------------------------------------------------------------
   x      58.867599     -59.885986      -1.018387
   y      27.300720     -28.263902      -0.963182
   z     -30.207813      31.274588       1.066775
 
   | dipole moment | =     1.7615 a.u. =     4.4773 debye 
 
 ------------------------------------------------------------------------------
                     quadrupole moment
 ------------------------------------------------------------------------------
  xx    4133.069067   -4208.420894     -75.351827
  yy     974.974169   -1062.673810     -87.699642
  zz     532.871984    -610.213249     -77.341264
  xy     186.901358    -194.595134      -7.693776
  xz    -809.719832     818.767965       9.048134
  yz    -124.857995     133.107759       8.249765
 
     1/3  trace=     -80.130911
     anisotropy=      27.554052
 
 ==============================================================================
 
HOMO-LUMO Separation
 HOMO         :   -0.23216185 H =     -6.31745 eV
 LUMO         :   -0.00723966 H =     -0.19700 eV
 HOMO-LUMO gap:    0.22492219 H =     +6.12045 eV
 
 ==============================================================================


    ------------------------------------------------------------------------
         total  cpu-time :  4 minutes and  0 seconds
         total wall-time :  1 minutes and  8 seconds
    ------------------------------------------------------------------------

   ****  ridft : all done  ****


    2026-03-23 21:24:20.699 

 ridft ended normally
