[Molden Format]
[Title]
                                                                                
[Atoms] AU
 c     1    6 0.15327701264567E+01 -.66007019100414E+00 0.10247523018934E+01
 c     2    6 -.73813595622079E+00 -.10720169464777E+01 -.80138598524633E+00
 c     3    6 -.25116736475078E+01 0.11900587182488E+01 -.66728533687221E+00
 o     4    8 -.25417751612916E+01 0.29098654744019E+01 -.21476260754801E+01
 o     5    8 -.40220881134051E+01 0.10921065061425E+01 0.13906416245174E+01
 n     6    7 -.21472014346075E+01 -.33907641875284E+01 -.35606724295585E+00
 c     7    6 0.30771284007891E+01 0.16652821592748E+01 0.42699508390219E+00
 o     8    8 0.31952120804885E+01 0.35406184591781E+01 0.17046206685969E+01
 o     9    8 0.43381318955521E+01 0.14096420549369E+01 -.17848045120979E+01
 h    10    1 0.86154474211119E+00 -.50278135042136E+00 0.29641466976151E+01
 h    11    1 0.27506146055037E+01 -.23188154839952E+01 0.86630636923257E+00
 h    12    1 -.22139831127090E-01 -.11050721306321E+01 -.27308394418630E+01
 h    13    1 -.50530504598707E+01 0.26082609369574E+01 0.13879532790773E+01
 h    14    1 -.28986627080614E+01 -.34301611764945E+01 0.14041558058607E+01
 h    15    1 -.10302059187967E+01 -.49282976541306E+01 -.58096828383945E+00
 h    16    1 0.52095313799886E+01 0.29921467012709E+01 -.21005968420692E+01
[GTO]
    1 0
 s    6 1.00
 0.13575349682000E+05 0.60645503603591E-03
 0.20352333680000E+04 0.46979088884982E-02
 0.46322562359000E+03 0.24332477647552E-01
 0.13120019598000E+03 0.97399968307759E-01
 0.42853015891000E+02 0.30195584253780E+00
 0.15584185766000E+02 0.66233609137875E+00
 s    2 1.00
 0.62067138508000E+01 0.65595308539952E+00
 0.25764896527000E+01 0.37585633285142E+00
 s    1 1.00
 0.57696339419000E+00 0.10000000000000E+01
 s    1 1.00
 0.22972831358000E+00 0.10000000000000E+01
 s    1 1.00
 0.95164440028000E-01 0.10000000000000E+01
 p    4 1.00
 0.34697232244000E+02 0.11327220003114E-01
 0.79582622826000E+01 0.76169659202087E-01
 0.23780826883000E+01 0.30192252202676E+00
 0.81433208183000E+00 0.72785027349547E+00
 p    1 1.00
 0.28887547253000E+00 0.10000000000000E+01
 p    1 1.00
 0.10056823671000E+00 0.10000000000000E+01
 d    1 1.00
 0.10970000000000E+01 0.10000000000000E+01
 d    1 1.00
 0.31800000000000E+00 0.10000000000000E+01
 f    1 1.00
 0.76100000000000E+00 0.10000000000000E+01
 
    2 0
 s    6 1.00
 0.13575349682000E+05 0.60645503603591E-03
 0.20352333680000E+04 0.46979088884982E-02
 0.46322562359000E+03 0.24332477647552E-01
 0.13120019598000E+03 0.97399968307759E-01
 0.42853015891000E+02 0.30195584253780E+00
 0.15584185766000E+02 0.66233609137875E+00
 s    2 1.00
 0.62067138508000E+01 0.65595308539952E+00
 0.25764896527000E+01 0.37585633285142E+00
 s    1 1.00
 0.57696339419000E+00 0.10000000000000E+01
 s    1 1.00
 0.22972831358000E+00 0.10000000000000E+01
 s    1 1.00
 0.95164440028000E-01 0.10000000000000E+01
 p    4 1.00
 0.34697232244000E+02 0.11327220003114E-01
 0.79582622826000E+01 0.76169659202087E-01
 0.23780826883000E+01 0.30192252202676E+00
 0.81433208183000E+00 0.72785027349547E+00
 p    1 1.00
 0.28887547253000E+00 0.10000000000000E+01
 p    1 1.00
 0.10056823671000E+00 0.10000000000000E+01
 d    1 1.00
 0.10970000000000E+01 0.10000000000000E+01
 d    1 1.00
 0.31800000000000E+00 0.10000000000000E+01
 f    1 1.00
 0.76100000000000E+00 0.10000000000000E+01
 
    3 0
 s    6 1.00
 0.13575349682000E+05 0.60645503603591E-03
 0.20352333680000E+04 0.46979088884982E-02
 0.46322562359000E+03 0.24332477647552E-01
 0.13120019598000E+03 0.97399968307759E-01
 0.42853015891000E+02 0.30195584253780E+00
 0.15584185766000E+02 0.66233609137875E+00
 s    2 1.00
 0.62067138508000E+01 0.65595308539952E+00
 0.25764896527000E+01 0.37585633285142E+00
 s    1 1.00
 0.57696339419000E+00 0.10000000000000E+01
 s    1 1.00
 0.22972831358000E+00 0.10000000000000E+01
 s    1 1.00
 0.95164440028000E-01 0.10000000000000E+01
 p    4 1.00
 0.34697232244000E+02 0.11327220003114E-01
 0.79582622826000E+01 0.76169659202087E-01
 0.23780826883000E+01 0.30192252202676E+00
 0.81433208183000E+00 0.72785027349547E+00
 p    1 1.00
 0.28887547253000E+00 0.10000000000000E+01
 p    1 1.00
 0.10056823671000E+00 0.10000000000000E+01
 d    1 1.00
 0.10970000000000E+01 0.10000000000000E+01
 d    1 1.00
 0.31800000000000E+00 0.10000000000000E+01
 f    1 1.00
 0.76100000000000E+00 0.10000000000000E+01
 
    4 0
 s    6 1.00
 0.27032382631000E+05 0.57227335211155E-03
 0.40523871392000E+04 0.44353233492995E-02
 0.92232722710000E+03 0.23020107706038E-01
 0.26124070989000E+03 0.92822490667928E-01
 0.85354641351000E+02 0.29378500009671E+00
 0.31035035245000E+02 0.67401604501641E+00
 s    2 1.00
 0.12260860728000E+02 0.63839937025506E+00
 0.49987076005000E+01 0.39534587125718E+00
 s    1 1.00
 0.11703108158000E+01 0.10000000000000E+01
 s    1 1.00
 0.46474740994000E+00 0.10000000000000E+01
 s    1 1.00
 0.18504536357000E+00 0.10000000000000E+01
 p    4 1.00
 0.63274954801000E+02 0.12018332222616E-01
 0.14627049379000E+02 0.83005421790056E-01
 0.44501223456000E+01 0.31991743925964E+00
 0.15275799647000E+01 0.70715542916104E+00
 p    1 1.00
 0.52935117943000E+00 0.10000000000000E+01
 p    1 1.00
 0.17478421270000E+00 0.10000000000000E+01
 d    1 1.00
 0.23140000000000E+01 0.10000000000000E+01
 d    1 1.00
 0.64500000000000E+00 0.10000000000000E+01
 f    1 1.00
 0.14280000000000E+01 0.10000000000000E+01
 
    5 0
 s    6 1.00
 0.27032382631000E+05 0.57227335211155E-03
 0.40523871392000E+04 0.44353233492995E-02
 0.92232722710000E+03 0.23020107706038E-01
 0.26124070989000E+03 0.92822490667928E-01
 0.85354641351000E+02 0.29378500009671E+00
 0.31035035245000E+02 0.67401604501641E+00
 s    2 1.00
 0.12260860728000E+02 0.63839937025506E+00
 0.49987076005000E+01 0.39534587125718E+00
 s    1 1.00
 0.11703108158000E+01 0.10000000000000E+01
 s    1 1.00
 0.46474740994000E+00 0.10000000000000E+01
 s    1 1.00
 0.18504536357000E+00 0.10000000000000E+01
 p    4 1.00
 0.63274954801000E+02 0.12018332222616E-01
 0.14627049379000E+02 0.83005421790056E-01
 0.44501223456000E+01 0.31991743925964E+00
 0.15275799647000E+01 0.70715542916104E+00
 p    1 1.00
 0.52935117943000E+00 0.10000000000000E+01
 p    1 1.00
 0.17478421270000E+00 0.10000000000000E+01
 d    1 1.00
 0.23140000000000E+01 0.10000000000000E+01
 d    1 1.00
 0.64500000000000E+00 0.10000000000000E+01
 f    1 1.00
 0.14280000000000E+01 0.10000000000000E+01
 
    6 0
 s    6 1.00
 0.19730800647000E+05 0.58626402628763E-03
 0.29578958745000E+04 0.45428820586397E-02
 0.67322133595000E+03 0.23558413450084E-01
 0.19068249494000E+03 0.94709193292923E-01
 0.62295441898000E+02 0.29719784913376E+00
 0.22654161182000E+02 0.66916246895232E+00
 s    2 1.00
 0.89791477428000E+01 0.64596683630063E+00
 0.36863002370000E+01 0.38700574393705E+00
 s    1 1.00
 0.84660076805000E+00 0.10000000000000E+01
 s    1 1.00
 0.33647133771000E+00 0.10000000000000E+01
 s    1 1.00
 0.13647653675000E+00 0.10000000000000E+01
 p    4 1.00
 0.49200380510000E+02 0.11448825101764E-01
 0.11346790537000E+02 0.78422337970864E-01
 0.34273972411000E+01 0.30818094738830E+00
 0.11785525134000E+01 0.72027196368413E+00
 p    1 1.00
 0.41642204972000E+00 0.10000000000000E+01
 p    1 1.00
 0.14260826011000E+00 0.10000000000000E+01
 d    1 1.00
 0.16540000000000E+01 0.10000000000000E+01
 d    1 1.00
 0.46900000000000E+00 0.10000000000000E+01
 f    1 1.00
 0.10930000000000E+01 0.10000000000000E+01
 
    7 0
 s    6 1.00
 0.13575349682000E+05 0.60645503603591E-03
 0.20352333680000E+04 0.46979088884982E-02
 0.46322562359000E+03 0.24332477647552E-01
 0.13120019598000E+03 0.97399968307759E-01
 0.42853015891000E+02 0.30195584253780E+00
 0.15584185766000E+02 0.66233609137875E+00
 s    2 1.00
 0.62067138508000E+01 0.65595308539952E+00
 0.25764896527000E+01 0.37585633285142E+00
 s    1 1.00
 0.57696339419000E+00 0.10000000000000E+01
 s    1 1.00
 0.22972831358000E+00 0.10000000000000E+01
 s    1 1.00
 0.95164440028000E-01 0.10000000000000E+01
 p    4 1.00
 0.34697232244000E+02 0.11327220003114E-01
 0.79582622826000E+01 0.76169659202087E-01
 0.23780826883000E+01 0.30192252202676E+00
 0.81433208183000E+00 0.72785027349547E+00
 p    1 1.00
 0.28887547253000E+00 0.10000000000000E+01
 p    1 1.00
 0.10056823671000E+00 0.10000000000000E+01
 d    1 1.00
 0.10970000000000E+01 0.10000000000000E+01
 d    1 1.00
 0.31800000000000E+00 0.10000000000000E+01
 f    1 1.00
 0.76100000000000E+00 0.10000000000000E+01
 
    8 0
 s    6 1.00
 0.27032382631000E+05 0.57227335211155E-03
 0.40523871392000E+04 0.44353233492995E-02
 0.92232722710000E+03 0.23020107706038E-01
 0.26124070989000E+03 0.92822490667928E-01
 0.85354641351000E+02 0.29378500009671E+00
 0.31035035245000E+02 0.67401604501641E+00
 s    2 1.00
 0.12260860728000E+02 0.63839937025506E+00
 0.49987076005000E+01 0.39534587125718E+00
 s    1 1.00
 0.11703108158000E+01 0.10000000000000E+01
 s    1 1.00
 0.46474740994000E+00 0.10000000000000E+01
 s    1 1.00
 0.18504536357000E+00 0.10000000000000E+01
 p    4 1.00
 0.63274954801000E+02 0.12018332222616E-01
 0.14627049379000E+02 0.83005421790056E-01
 0.44501223456000E+01 0.31991743925964E+00
 0.15275799647000E+01 0.70715542916104E+00
 p    1 1.00
 0.52935117943000E+00 0.10000000000000E+01
 p    1 1.00
 0.17478421270000E+00 0.10000000000000E+01
 d    1 1.00
 0.23140000000000E+01 0.10000000000000E+01
 d    1 1.00
 0.64500000000000E+00 0.10000000000000E+01
 f    1 1.00
 0.14280000000000E+01 0.10000000000000E+01
 
    9 0
 s    6 1.00
 0.27032382631000E+05 0.57227335211155E-03
 0.40523871392000E+04 0.44353233492995E-02
 0.92232722710000E+03 0.23020107706038E-01
 0.26124070989000E+03 0.92822490667928E-01
 0.85354641351000E+02 0.29378500009671E+00
 0.31035035245000E+02 0.67401604501641E+00
 s    2 1.00
 0.12260860728000E+02 0.63839937025506E+00
 0.49987076005000E+01 0.39534587125718E+00
 s    1 1.00
 0.11703108158000E+01 0.10000000000000E+01
 s    1 1.00
 0.46474740994000E+00 0.10000000000000E+01
 s    1 1.00
 0.18504536357000E+00 0.10000000000000E+01
 p    4 1.00
 0.63274954801000E+02 0.12018332222616E-01
 0.14627049379000E+02 0.83005421790056E-01
 0.44501223456000E+01 0.31991743925964E+00
 0.15275799647000E+01 0.70715542916104E+00
 p    1 1.00
 0.52935117943000E+00 0.10000000000000E+01
 p    1 1.00
 0.17478421270000E+00 0.10000000000000E+01
 d    1 1.00
 0.23140000000000E+01 0.10000000000000E+01
 d    1 1.00
 0.64500000000000E+00 0.10000000000000E+01
 f    1 1.00
 0.14280000000000E+01 0.10000000000000E+01
 
   10 0
 s    3 1.00
 0.34061341000000E+02 0.25439307208879E-01
 0.51235746000000E+01 0.19008594890375E+00
 0.11646626000000E+01 0.85244113011042E+00
 s    1 1.00
 0.32723041000000E+00 0.10000000000000E+01
 s    1 1.00
 0.10307241000000E+00 0.10000000000000E+01
 p    1 1.00
 0.80000000000000E+00 0.10000000000000E+01
 
   11 0
 s    3 1.00
 0.34061341000000E+02 0.25439307208879E-01
 0.51235746000000E+01 0.19008594890375E+00
 0.11646626000000E+01 0.85244113011042E+00
 s    1 1.00
 0.32723041000000E+00 0.10000000000000E+01
 s    1 1.00
 0.10307241000000E+00 0.10000000000000E+01
 p    1 1.00
 0.80000000000000E+00 0.10000000000000E+01
 
   12 0
 s    3 1.00
 0.34061341000000E+02 0.25439307208879E-01
 0.51235746000000E+01 0.19008594890375E+00
 0.11646626000000E+01 0.85244113011042E+00
 s    1 1.00
 0.32723041000000E+00 0.10000000000000E+01
 s    1 1.00
 0.10307241000000E+00 0.10000000000000E+01
 p    1 1.00
 0.80000000000000E+00 0.10000000000000E+01
 
   13 0
 s    3 1.00
 0.34061341000000E+02 0.25439307208879E-01
 0.51235746000000E+01 0.19008594890375E+00
 0.11646626000000E+01 0.85244113011042E+00
 s    1 1.00
 0.32723041000000E+00 0.10000000000000E+01
 s    1 1.00
 0.10307241000000E+00 0.10000000000000E+01
 p    1 1.00
 0.80000000000000E+00 0.10000000000000E+01
 
   14 0
 s    3 1.00
 0.34061341000000E+02 0.25439307208879E-01
 0.51235746000000E+01 0.19008594890375E+00
 0.11646626000000E+01 0.85244113011042E+00
 s    1 1.00
 0.32723041000000E+00 0.10000000000000E+01
 s    1 1.00
 0.10307241000000E+00 0.10000000000000E+01
 p    1 1.00
 0.80000000000000E+00 0.10000000000000E+01
 
   15 0
 s    3 1.00
 0.34061341000000E+02 0.25439307208879E-01
 0.51235746000000E+01 0.19008594890375E+00
 0.11646626000000E+01 0.85244113011042E+00
 s    1 1.00
 0.32723041000000E+00 0.10000000000000E+01
 s    1 1.00
 0.10307241000000E+00 0.10000000000000E+01
 p    1 1.00
 0.80000000000000E+00 0.10000000000000E+01
 
   16 0
 s    3 1.00
 0.34061341000000E+02 0.25439307208879E-01
 0.51235746000000E+01 0.19008594890375E+00
 0.11646626000000E+01 0.85244113011042E+00
 s    1 1.00
 0.32723041000000E+00 0.10000000000000E+01
 s    1 1.00
 0.10307241000000E+00 0.10000000000000E+01
 p    1 1.00
 0.80000000000000E+00 0.10000000000000E+01
 
[MO]
 Sym=     1a   
 Ene= -.19184928233837E+02
 Spin= Alpha
 Occup= 2.000000
     1 -.10835159101075E-05
     2 0.43016712505316E-05
     3 0.42792770487674E-03
     4 -.32945885774629E-02
     5 0.55054065387711E-02
     6 0.10625188645009E-04
     7 -.41181989505563E-05
     8 -.12813398786823E-04
     9 0.47862883265875E-03
    10 -.39148264574498E-03
    11 0.10308499742633E-02
    12 -.26236843511791E-02
    13 0.10476166463178E-02
    14 -.10603015774628E-02
    15 -.23502972232434E-04
    16 0.22771860755139E-04
    17 0.73111147729570E-06
    18 0.40395514057015E-05
    19 -.14878739793540E-04
    20 0.33812998985626E-04
    21 0.78914049241703E-04
    22 -.13702331188048E-03
    23 0.58109262638774E-04
    24 -.11677566211289E-03
    25 -.33222915490887E-03
    26 -.95150272076662E-04
    27 -.80145192700491E-06
    28 -.11026812751020E-04
    29 -.62720389953022E-05
    30 -.23459127007709E-04
    31 0.15948927163283E-04
    32 0.16166028225526E-04
    33 0.24534387601398E-04
    34 -.11549054314174E-05
    35 -.77512048949110E-05
    36 0.60941920228169E-06
    37 0.14623748694771E-05
    38 -.40831647145823E-05
    39 -.85479287457887E-03
    40 0.70815231072769E-02
    41 -.10239609334145E-01
    42 -.90989534056115E-04
    43 0.70304275974023E-04
    44 -.81452791298348E-04
    45 -.12513163547457E-02
    46 0.15272098068162E-02
    47 0.17412728919591E-02
    48 -.71014190394962E-03
    49 -.39220265948422E-02
    50 0.28723995144724E-03
    51 -.32649299431195E-04
    52 0.38435916771615E-04
    53 -.57866173404197E-05
    54 -.50618427311697E-04
    55 -.22189934187967E-04
    56 -.26529349877274E-04
    57 0.46543157268960E-03
    58 0.25062390070804E-03
    59 -.71605547339764E-03
    60 -.23762671733962E-04
    61 0.53938093591221E-03
    62 0.19235784414544E-03
    63 0.20829737145874E-04
    64 0.17120446084501E-04
    65 0.11200503640510E-04
    66 -.48374016265812E-04
    67 -.45328467489403E-05
    68 -.12467500818320E-04
    69 0.20427991338837E-04
    70 -.18436642001099E-04
    71 -.25595516951293E-05
    72 0.35170476835736E-04
    73 0.36246652823479E-04
    74 -.19921887017626E-03
    75 -.63459655420140E-03
    76 0.40673610512135E-02
    77 -.33639900527264E-02
    78 -.26038611634631E-04
    79 -.50708023451060E-04
    80 0.36715924090416E-04
    81 -.42668123371106E-02
    82 0.73086478471637E-03
    83 0.52104673244638E-02
    84 0.28086726551522E-02
    85 0.12832911213900E-02
    86 -.65814403762781E-02
    87 0.15171503072548E-04
    88 -.12350265366968E-03
    89 0.10833115059713E-03
    90 -.53349400705038E-04
    91 -.26960809544573E-03
    92 -.33759400449432E-04
    93 0.13516035989702E-03
    94 -.17352380398458E-02
    95 0.16000776799488E-02
    96 0.88945448987069E-03
    97 -.18580582613854E-02
    98 0.94118232555558E-04
    99 0.72950468205984E-04
   100 -.99354358111848E-05
   101 -.30868704453956E-04
   102 0.40652250854757E-04
   103 0.72580072694240E-04
   104 0.75189381176020E-04
   105 -.13852557439417E-03
   106 -.59250286778303E-04
   107 -.33774668254182E-04
   108 -.38887305672642E-04
   109 -.39726759343715E-04
   110 -.42711966213285E-04
   111 -.24174762299393E-03
   112 0.18354576735798E-02
   113 -.22621244318213E-02
   114 0.32676077294084E-04
   115 -.78190189685797E-04
   116 0.61143447338385E-04
   117 -.41666052904694E-03
   118 0.81111360567481E-04
   119 0.29894351316139E-03
   120 -.42832636352931E-03
   121 0.44506581829243E-03
   122 0.94946029819598E-03
   123 -.12013224618014E-04
   124 0.21214191554544E-04
   125 -.92009669365298E-05
   126 -.32408198288821E-04
   127 -.29593325446716E-04
   128 -.13298840984320E-04
   129 0.27120433250376E-04
   130 -.11950539372067E-03
   131 0.92384960470299E-04
   132 0.17514184621048E-03
   133 0.53827376242659E-04
   134 0.97935233495386E-05
   135 -.30059434706925E-05
   136 -.31833345883094E-08
   137 0.72275808510288E-06
   138 -.11931438686295E-04
   139 -.57007640766940E-05
   140 -.15548163084317E-05
   141 0.15964335048489E-04
   142 0.57050349682147E-05
   143 0.58513458268516E-06
   144 0.14230577852597E-05
   145 0.43508968265919E+00
   146 0.63948970664299E+00
   147 0.36687288663126E-01
   148 -.30232671613220E-01
   149 0.14389351493860E-01
   150 0.36681666038288E-03
   151 0.11381267060298E-02
   152 -.14558575791371E-02
   153 -.23009642516530E-02
   154 -.17743873671705E-02
   155 0.44254855547453E-02
   156 0.13051215909583E-02
   157 -.10646914809483E-03
   158 -.11133760762095E-02
   159 -.51153193573226E-06
   160 -.24167537190385E-04
   161 0.24679069126118E-04
   162 -.53704769709695E-04
   163 -.10864927797810E-03
   164 -.43571278144964E-05
   165 -.52764660002751E-05
   166 0.22205447542469E-03
   167 -.21677800942442E-03
   168 0.25920457456097E-03
   169 0.70202696098004E-03
   170 0.46259529964094E-04
   171 -.10777260882610E-05
   172 -.12054779870607E-05
   173 0.85360552413428E-05
   174 0.69760758679279E-04
   175 -.22713020608048E-04
   176 0.20175262826076E-04
   177 -.68314837402593E-04
   178 0.24330339042716E-04
   179 -.31627582693678E-04
   180 0.94026348748709E-05
   181 0.40819997347236E-05
   182 -.23956743027938E-04
   183 0.34953110037461E-03
   184 -.11924347793153E-02
   185 -.39898037785087E-04
   186 -.50137416919822E-05
   187 0.54040719392279E-04
   188 -.40940597065754E-04
   189 -.26759775737165E-03
   190 -.37306124667350E-03
   191 0.37670134699576E-03
   192 -.76511421863065E-03
   193 0.60921325191577E-03
   194 -.12104485254038E-03
   195 0.10952639571097E-05
   196 0.12695415759089E-04
   197 -.13790679716198E-04
   198 -.17929276758285E-04
   199 -.65302388068043E-05
   200 0.85339943501982E-05
   201 0.39914548141561E-04
   202 -.18523058232952E-03
   203 0.14531603418796E-03
   204 0.28324119605373E-04
   205 0.28894193317346E-04
   206 0.46109185973929E-04
   207 0.60470646336929E-05
   208 -.73695746710367E-05
   209 -.23196374593351E-05
   210 -.13574162843060E-04
   211 0.87207701000561E-05
   212 -.53808197756081E-05
   213 0.54611742918967E-05
   214 0.11665518577631E-05
   215 0.84929400009450E-05
   216 0.49962178761627E-05
   217 -.50775397629786E-06
   218 0.19953516238743E-05
   219 0.15126903485966E-03
   220 -.94062051098767E-03
   221 0.16058130363323E-02
   222 0.56191077580006E-04
   223 0.29906257457219E-05
   224 -.10999260697071E-04
   225 -.50210492971945E-03
   226 -.43692288507999E-03
   227 0.29697662072384E-03
   228 -.77208539324282E-03
   229 -.84208219674532E-03
   230 0.62459815108235E-03
   231 -.36938807830851E-04
   232 0.21939695872242E-04
   233 0.14999111958610E-04
   234 -.15730303699257E-04
   235 0.10365962917684E-04
   236 -.14930510073046E-04
   237 0.26803103549639E-03
   238 -.56136943357028E-04
   239 -.21189409213936E-03
   240 0.21912594867385E-03
   241 -.97154323327503E-05
   242 -.18698349702462E-03
   243 0.11101436403410E-04
   244 0.46438572049098E-05
   245 0.10250671486923E-04
   246 -.75099057983799E-05
   247 -.81125290311321E-05
   248 0.36655466514209E-05
   249 -.73842340691694E-05
   250 0.18821407983437E-05
   251 -.17418265607288E-04
   252 -.91069887736378E-06
   253 -.16636474423593E-05
   254 0.15896502528381E-05
   255 -.77567622662310E-04
   256 0.59079376915568E-03
   257 -.47506033391626E-03
   258 -.22234552595301E-04
   259 0.85772854914015E-05
   260 -.90909741472507E-05
   261 0.39985141643267E-04
   262 -.20557833282917E-03
   263 -.42989521766415E-04
   264 0.12544845687395E-03
   265 0.30557610582085E-03
   266 -.23811030596735E-03
   267 -.39129602076233E-06
   268 0.55363760842112E-05
   269 -.51450800634488E-05
   270 0.51355461517684E-05
   271 -.35744374084514E-05
   272 -.16152337816166E-05
   273 -.14071140160698E-04
   274 -.34273266074026E-05
   275 0.17498466768100E-04
   276 -.20149006567382E-04
   277 0.14777854473997E-04
   278 0.18753264528989E-04
   279 -.20104918327936E-05
   280 -.11043017869856E-05
   281 -.68807796832318E-06
   282 0.32165629163558E-05
   283 0.13155328613451E-05
   284 0.61505869139738E-06
   285 -.51920507255509E-06
   286 0.16604345667948E-06
   287 0.30809477519697E-06
   288 -.35323645894800E-06
   289 -.69331874127943E-04
   290 -.95387402154867E-04
   291 -.72460135938753E-04
   292 0.23226018413986E-03
   293 0.23592939865463E-03
   294 0.32239079828786E-04
   295 0.27356784811235E-05
   296 -.22792909724465E-04
   297 -.22059542570891E-03
   298 -.54571468690623E-04
   299 0.21463232575812E-03
   300 -.17268012001251E-03
   301 -.83260327287082E-04
   302 0.33593968899481E-04
   303 -.10514768310232E-04
   304 0.81800981934735E-05
   305 0.23346701167589E-05
   306 -.98849949152113E-06
   307 0.54894430950121E-05
   308 0.13074264270537E-05
   309 0.41856914841817E-04
   310 -.54948432038175E-04
   311 0.13091517196358E-04
   312 -.11378149483661E-04
   313 -.54291955965117E-04
   314 -.79722984448012E-05
   315 0.24864907823762E-05
   316 0.58477160661541E-06
   317 -.14131381645524E-05
   318 -.10365108442136E-05
   319 -.19598020793627E-06
   320 0.26512342764559E-05
   321 -.22994666046782E-05
   322 -.58857323028603E-06
   323 -.75531047793286E-06
   324 -.95977030396743E-06
   325 0.19618663612635E-04
   326 -.46168431526179E-03
   327 -.49039680911251E-03
   328 -.55387347253750E-04
   329 0.26405818353763E-04
   330 0.18320471078829E-04
   331 0.57216567656930E-04
   332 0.18953430432499E-04
   333 0.30225130003105E-03
   334 -.55650237999637E-04
   335 0.62426171756446E-05
   336 0.18018346910216E-04
   337 0.71396134288877E-04
   338 0.16481217396125E-02
   339 0.49677547858835E-03
   340 -.17036725492995E-04
   341 0.49612310220326E-04
   342 0.17886952272214E-03
   343 0.80184786272025E-03
   344 0.11754025156112E-02
   345 -.36889552673696E-03
   346 0.51959447523577E-03
   347 -.78817976279389E-03
   348 0.30320454177340E-04
   349 -.21796483147363E-04
   350 -.11720260153912E-04
   351 0.16430543742775E-03
   352 0.17586985462063E-04
   353 0.16997507157335E-04
   354 0.46753819164109E-04
   355 0.42148264268348E-04
   356 0.56981085668254E-03
   357 -.74431733384678E-04
   358 -.13130362381482E-03
   359 0.70120135642828E-04
   360 0.16529170810202E-04
   361 -.11112051685408E-05
   362 0.21091390996541E-03
   363 0.14258438085332E-03
   364 -.26964824085741E-04
   365 -.39751486161986E-04
   366 0.30305313704541E-04
 Sym=     2a   
 Ene= -.19181079818727E+02
 Spin= Alpha
 Occup= 2.000000
     1 0.60627252021862E-05
     2 -.27671405380185E-04
     3 -.43885657963709E-03
     4 0.56124033905481E-02
     5 -.91651991621832E-02
     6 0.98151387443514E-04
     7 0.58368822974872E-04
     8 0.48207169584542E-04
     9 0.11407055707584E-02
    10 0.16623838673935E-02
    11 -.18309089546086E-02
    12 0.31748820957073E-02
    13 -.21243430634061E-02
    14 -.10308242371029E-02
    15 -.29788406209305E-04
    16 0.40241724124130E-04
    17 -.10453317914826E-04
    18 0.47058075197191E-04
    19 -.28018186893805E-04
    20 0.23507828885579E-04
    21 0.35399955532711E-03
    22 0.32621461559278E-03
    23 -.68021417091990E-03
    24 0.18234513143267E-03
    25 0.45756168924778E-03
    26 -.38875358741010E-03
    27 -.16721187581861E-04
    28 0.21350602291538E-04
    29 -.78067101296226E-05
    30 0.47218670339280E-04
    31 0.31672215890830E-05
    32 0.14712615257996E-04
    33 -.24784843080740E-04
    34 -.31812060439748E-04
    35 -.42388145397125E-05
    36 0.20440219468281E-04
    37 0.12627794195999E-05
    38 -.73321142062138E-05
    39 0.52978981482234E-03
    40 -.32257829808226E-02
    41 0.69784943352326E-02
    42 -.52804045162133E-05
    43 0.21890191116287E-04
    44 0.55723909391891E-04
    45 -.24471627986759E-03
    46 -.59801541445651E-03
    47 -.75384706918233E-03
    48 -.89458914888521E-04
    49 0.34463619324604E-03
    50 0.43922882234828E-02
    51 -.20315611919685E-04
    52 0.10106128410452E-04
    53 0.10209483509233E-04
    54 0.68681193577313E-05
    55 -.93376174918869E-05
    56 -.26604220244746E-04
    57 0.19285616933859E-03
    58 -.14484274002611E-03
    59 -.48013429312471E-04
    60 -.99835513702172E-04
    61 -.16844816723438E-03
    62 -.15238410920206E-04
    63 -.26958975756653E-05
    64 0.39880834617593E-05
    65 0.17669881573580E-04
    66 0.20727585437911E-04
    67 0.68001400383612E-05
    68 -.12790659466060E-04
    69 -.17110659294172E-04
    70 -.12150715470623E-04
    71 -.10915974345678E-04
    72 -.17709214601627E-04
    73 -.69924737386100E-06
    74 0.31398710241803E-05
    75 0.95584264024413E-04
    76 -.12654459368063E-02
    77 0.15314037825328E-02
    78 -.69984147120284E-04
    79 0.44446398020250E-05
    80 0.30837781318189E-05
    81 0.44972728733536E-03
    82 -.27429087887330E-03
    83 0.23258294485462E-06
    84 0.11804975347690E-02
    85 -.31079506486388E-03
    86 -.49522711105103E-03
    87 -.47405325100317E-04
    88 0.29952643405849E-04
    89 0.17452681694469E-04
    90 0.41667661791859E-05
    91 0.14205098691648E-04
    92 0.14332170159859E-04
    93 0.32359560784932E-03
    94 -.13505548070735E-03
    95 -.18854012714197E-03
    96 -.11975494642545E-03
    97 -.48398152014722E-04
    98 0.58291236961359E-04
    99 -.45186613273010E-05
   100 0.11691142590357E-04
   101 -.77240957166561E-05
   102 0.60688020429952E-05
   103 -.13570919840251E-04
   104 -.18385800721071E-05
   105 -.63817059086072E-08
   106 -.21143938997580E-05
   107 0.12201541924402E-04
   108 -.97084930773202E-05
   109 0.77734747669699E-05
   110 0.32707487564262E-05
   111 0.28965957721527E-04
   112 0.18854372173480E-03
   113 -.89636406654201E-04
   114 0.43260804354633E-04
   115 0.88258731301499E-05
   116 -.40137027163684E-05
   117 -.19750361385178E-03
   118 -.13670939838056E-03
   119 0.98884785165780E-04
   120 0.97481197591673E-04
   121 0.36718558918494E-04
   122 0.12348064609232E-03
   123 -.60356293999516E-05
   124 0.42231186485334E-05
   125 0.18125107514181E-05
   126 -.29068157340129E-05
   127 0.10425071797114E-05
   128 0.44655544650216E-05
   129 0.12824784143316E-05
   130 -.29758265092134E-05
   131 0.16933480948818E-05
   132 0.27151195450988E-04
   133 -.13334962205646E-04
   134 -.23303888295967E-04
   135 0.38105135228587E-05
   136 -.16176017935981E-05
   137 0.15411374115869E-05
   138 -.40113888644781E-05
   139 0.12660429523863E-05
   140 -.12641411255989E-05
   141 -.11009514952984E-05
   142 0.90419759022023E-06
   143 -.80351168338691E-06
   144 0.17849167739491E-05
   145 0.67865933168739E-04
   146 0.10691930492779E-03
   147 -.60794175956396E-04
   148 0.21978895146924E-03
   149 -.29582642965152E-03
   150 -.27464400714110E-04
   151 -.13723424176659E-06
   152 -.33483230111786E-05
   153 0.15994178112784E-03
   154 -.26140486923943E-04
   155 -.45181637297228E-05
   156 -.26503951204324E-03
   157 0.36690507284422E-03
   158 -.39333307106049E-04
   159 -.56650153733519E-05
   160 0.38092651594768E-05
   161 0.18557502138751E-05
   162 -.70661320335756E-05
   163 0.54774804815051E-05
   164 -.62306494039107E-07
   165 0.32088220612328E-04
   166 -.19276346269060E-04
   167 -.12811874343268E-04
   168 0.25037451822874E-04
   169 -.40365953478234E-04
   170 0.52233042411491E-05
   171 -.49759886187414E-06
   172 0.16218469922394E-06
   173 0.25486310908316E-05
   174 -.17207204967847E-05
   175 0.63578842254533E-06
   176 -.32456259734088E-05
   177 0.23883194251910E-05
   178 -.85338202997038E-06
   179 -.17372144779261E-06
   180 -.38084894834345E-06
   181 -.89292590078797E-06
   182 0.55987726993888E-05
   183 -.17452563936807E-03
   184 0.90679358530644E-03
   185 -.25772397859367E-02
   186 -.28637882896952E-05
   187 -.28062234289042E-05
   188 -.17870181515140E-04
   189 0.15390511843475E-03
   190 0.13375148252900E-03
   191 0.10275029217732E-03
   192 -.15335838497203E-03
   193 -.10623371113361E-02
   194 -.72988589718518E-03
   195 -.44572315791494E-06
   196 0.13484132524367E-04
   197 -.13038409366452E-04
   198 0.62681695238327E-05
   199 0.20389696612196E-05
   200 0.88659278296837E-05
   201 0.79149925886813E-05
   202 -.38318661800179E-04
   203 0.30403669211497E-04
   204 0.20123372293886E-04
   205 -.30768385665352E-04
   206 -.30274048356123E-04
   207 -.33078383321429E-05
   208 -.43738409934399E-06
   209 0.19679815483497E-05
   210 0.85556283928702E-05
   211 0.94412916007434E-06
   212 -.13131376832656E-05
   213 -.41176975713195E-05
   214 -.35731681302794E-06
   215 -.13271866290795E-05
   216 0.13237363217199E-05
   217 0.36273394174212E-04
   218 -.19891312929662E-03
   219 -.61362723274765E-03
   220 0.34339331987955E-02
   221 -.44908055554560E-02
   222 0.46770039438563E-04
   223 -.66910024950439E-04
   224 -.42559705733300E-05
   225 0.36390690747721E-02
   226 0.55414313450573E-03
   227 -.59123615230298E-02
   228 -.17903619556028E-02
   229 0.18581205969229E-02
   230 0.56563162348674E-02
   231 -.51821303032115E-04
   232 -.10529321286417E-03
   233 0.15711451589629E-03
   234 0.26332565444893E-04
   235 -.25226032311066E-03
   236 0.36623641533684E-04
   237 -.12746874019955E-03
   238 -.18122343890313E-02
   239 0.19397031292308E-02
   240 -.95286829411265E-03
   241 -.15224720008306E-02
   242 0.42803371334081E-03
   243 -.98547679304810E-04
   244 -.12369497500398E-04
   245 0.87509198888045E-06
   246 -.34667499957568E-04