[Molden Format]
[Title]
                                                                                
[Atoms] AU
 c     1    6 -.43127434352606E+01 -.11370755563845E+01 -.32289695730351E+00
 c     2    6 -.17656586894719E+01 -.27547388708238E+00 -.13483291215261E+01
 o     3    8 0.16423376859427E+00 -.15466816113035E+01 0.15028565316160E-01
 c     4    6 0.26687780930845E+01 -.98200642457052E+00 -.74539522070110E+00
 c     5    6 0.37127235446594E+01 0.13498047391019E+01 0.58289283251795E+00
 o     6    8 0.62415476744213E+01 0.16730310343965E+01 -.28132762751446E+00
 n     7    7 -.48111036768465E+01 -.55087016169516E+00 0.23260000761205E+01
 h     8    1 -.44530397551154E+01 -.31845289443748E+01 -.56475924522200E+00
 h     9    1 -.58027045642650E+01 -.29267416581685E+00 -.14798449868899E+01
 h    10    1 -.16177471840155E+01 -.73168391996554E+00 -.33711060647166E+01
 h    11    1 -.15805629606408E+01 0.17844943440075E+01 -.11478223238910E+01
 h    12    1 0.27825768743951E+01 -.72511131748122E+00 -.27991206029892E+01
 h    13    1 0.38299124819295E+01 -.26122898645108E+01 -.24621475676326E+00
 h    14    1 0.25592348199497E+01 0.30132435156589E+01 0.13751307027613E+00
 h    15    1 0.36439376607408E+01 0.10477639841163E+01 0.26313799373147E+01
 h    16    1 0.69896758079284E+01 0.30865720073075E+01 0.58362527979260E+00
 h    17    1 -.48412201987690E+01 0.13445887902680E+01 0.26104598035532E+01
 h    18    1 -.34078421510448E+01 -.12611044514008E+01 0.34199173426237E+01
[GTO]
    1 0
 s    6 1.00
 0.13575349682000E+05 0.60645503603591E-03
 0.20352333680000E+04 0.46979088884982E-02
 0.46322562359000E+03 0.24332477647552E-01
 0.13120019598000E+03 0.97399968307759E-01
 0.42853015891000E+02 0.30195584253780E+00
 0.15584185766000E+02 0.66233609137875E+00
 s    2 1.00
 0.62067138508000E+01 0.65595308539952E+00
 0.25764896527000E+01 0.37585633285142E+00
 s    1 1.00
 0.57696339419000E+00 0.10000000000000E+01
 s    1 1.00
 0.22972831358000E+00 0.10000000000000E+01
 s    1 1.00
 0.95164440028000E-01 0.10000000000000E+01
 p    4 1.00
 0.34697232244000E+02 0.11327220003114E-01
 0.79582622826000E+01 0.76169659202087E-01
 0.23780826883000E+01 0.30192252202676E+00
 0.81433208183000E+00 0.72785027349547E+00
 p    1 1.00
 0.28887547253000E+00 0.10000000000000E+01
 p    1 1.00
 0.10056823671000E+00 0.10000000000000E+01
 d    1 1.00
 0.10970000000000E+01 0.10000000000000E+01
 d    1 1.00
 0.31800000000000E+00 0.10000000000000E+01
 f    1 1.00
 0.76100000000000E+00 0.10000000000000E+01
 
    2 0
 s    6 1.00
 0.13575349682000E+05 0.60645503603591E-03
 0.20352333680000E+04 0.46979088884982E-02
 0.46322562359000E+03 0.24332477647552E-01
 0.13120019598000E+03 0.97399968307759E-01
 0.42853015891000E+02 0.30195584253780E+00
 0.15584185766000E+02 0.66233609137875E+00
 s    2 1.00
 0.62067138508000E+01 0.65595308539952E+00
 0.25764896527000E+01 0.37585633285142E+00
 s    1 1.00
 0.57696339419000E+00 0.10000000000000E+01
 s    1 1.00
 0.22972831358000E+00 0.10000000000000E+01
 s    1 1.00
 0.95164440028000E-01 0.10000000000000E+01
 p    4 1.00
 0.34697232244000E+02 0.11327220003114E-01
 0.79582622826000E+01 0.76169659202087E-01
 0.23780826883000E+01 0.30192252202676E+00
 0.81433208183000E+00 0.72785027349547E+00
 p    1 1.00
 0.28887547253000E+00 0.10000000000000E+01
 p    1 1.00
 0.10056823671000E+00 0.10000000000000E+01
 d    1 1.00
 0.10970000000000E+01 0.10000000000000E+01
 d    1 1.00
 0.31800000000000E+00 0.10000000000000E+01
 f    1 1.00
 0.76100000000000E+00 0.10000000000000E+01
 
    3 0
 s    6 1.00
 0.27032382631000E+05 0.57227335211155E-03
 0.40523871392000E+04 0.44353233492995E-02
 0.92232722710000E+03 0.23020107706038E-01
 0.26124070989000E+03 0.92822490667928E-01
 0.85354641351000E+02 0.29378500009671E+00
 0.31035035245000E+02 0.67401604501641E+00
 s    2 1.00
 0.12260860728000E+02 0.63839937025506E+00
 0.49987076005000E+01 0.39534587125718E+00
 s    1 1.00
 0.11703108158000E+01 0.10000000000000E+01
 s    1 1.00
 0.46474740994000E+00 0.10000000000000E+01
 s    1 1.00
 0.18504536357000E+00 0.10000000000000E+01
 p    4 1.00
 0.63274954801000E+02 0.12018332222616E-01
 0.14627049379000E+02 0.83005421790056E-01
 0.44501223456000E+01 0.31991743925964E+00
 0.15275799647000E+01 0.70715542916104E+00
 p    1 1.00
 0.52935117943000E+00 0.10000000000000E+01
 p    1 1.00
 0.17478421270000E+00 0.10000000000000E+01
 d    1 1.00
 0.23140000000000E+01 0.10000000000000E+01
 d    1 1.00
 0.64500000000000E+00 0.10000000000000E+01
 f    1 1.00
 0.14280000000000E+01 0.10000000000000E+01
 
    4 0
 s    6 1.00
 0.13575349682000E+05 0.60645503603591E-03
 0.20352333680000E+04 0.46979088884982E-02
 0.46322562359000E+03 0.24332477647552E-01
 0.13120019598000E+03 0.97399968307759E-01
 0.42853015891000E+02 0.30195584253780E+00
 0.15584185766000E+02 0.66233609137875E+00
 s    2 1.00
 0.62067138508000E+01 0.65595308539952E+00
 0.25764896527000E+01 0.37585633285142E+00
 s    1 1.00
 0.57696339419000E+00 0.10000000000000E+01
 s    1 1.00
 0.22972831358000E+00 0.10000000000000E+01
 s    1 1.00
 0.95164440028000E-01 0.10000000000000E+01
 p    4 1.00
 0.34697232244000E+02 0.11327220003114E-01
 0.79582622826000E+01 0.76169659202087E-01
 0.23780826883000E+01 0.30192252202676E+00
 0.81433208183000E+00 0.72785027349547E+00
 p    1 1.00
 0.28887547253000E+00 0.10000000000000E+01
 p    1 1.00
 0.10056823671000E+00 0.10000000000000E+01
 d    1 1.00
 0.10970000000000E+01 0.10000000000000E+01
 d    1 1.00
 0.31800000000000E+00 0.10000000000000E+01
 f    1 1.00
 0.76100000000000E+00 0.10000000000000E+01
 
    5 0
 s    6 1.00
 0.13575349682000E+05 0.60645503603591E-03
 0.20352333680000E+04 0.46979088884982E-02
 0.46322562359000E+03 0.24332477647552E-01
 0.13120019598000E+03 0.97399968307759E-01
 0.42853015891000E+02 0.30195584253780E+00
 0.15584185766000E+02 0.66233609137875E+00
 s    2 1.00
 0.62067138508000E+01 0.65595308539952E+00
 0.25764896527000E+01 0.37585633285142E+00
 s    1 1.00
 0.57696339419000E+00 0.10000000000000E+01
 s    1 1.00
 0.22972831358000E+00 0.10000000000000E+01
 s    1 1.00
 0.95164440028000E-01 0.10000000000000E+01
 p    4 1.00
 0.34697232244000E+02 0.11327220003114E-01
 0.79582622826000E+01 0.76169659202087E-01
 0.23780826883000E+01 0.30192252202676E+00
 0.81433208183000E+00 0.72785027349547E+00
 p    1 1.00
 0.28887547253000E+00 0.10000000000000E+01
 p    1 1.00
 0.10056823671000E+00 0.10000000000000E+01
 d    1 1.00
 0.10970000000000E+01 0.10000000000000E+01
 d    1 1.00
 0.31800000000000E+00 0.10000000000000E+01
 f    1 1.00
 0.76100000000000E+00 0.10000000000000E+01
 
    6 0
 s    6 1.00
 0.27032382631000E+05 0.57227335211155E-03
 0.40523871392000E+04 0.44353233492995E-02
 0.92232722710000E+03 0.23020107706038E-01
 0.26124070989000E+03 0.92822490667928E-01
 0.85354641351000E+02 0.29378500009671E+00
 0.31035035245000E+02 0.67401604501641E+00
 s    2 1.00
 0.12260860728000E+02 0.63839937025506E+00
 0.49987076005000E+01 0.39534587125718E+00
 s    1 1.00
 0.11703108158000E+01 0.10000000000000E+01
 s    1 1.00
 0.46474740994000E+00 0.10000000000000E+01
 s    1 1.00
 0.18504536357000E+00 0.10000000000000E+01
 p    4 1.00
 0.63274954801000E+02 0.12018332222616E-01
 0.14627049379000E+02 0.83005421790056E-01
 0.44501223456000E+01 0.31991743925964E+00
 0.15275799647000E+01 0.70715542916104E+00
 p    1 1.00
 0.52935117943000E+00 0.10000000000000E+01
 p    1 1.00
 0.17478421270000E+00 0.10000000000000E+01
 d    1 1.00
 0.23140000000000E+01 0.10000000000000E+01
 d    1 1.00
 0.64500000000000E+00 0.10000000000000E+01
 f    1 1.00
 0.14280000000000E+01 0.10000000000000E+01
 
    7 0
 s    6 1.00
 0.19730800647000E+05 0.58626402628763E-03
 0.29578958745000E+04 0.45428820586397E-02
 0.67322133595000E+03 0.23558413450084E-01
 0.19068249494000E+03 0.94709193292923E-01
 0.62295441898000E+02 0.29719784913376E+00
 0.22654161182000E+02 0.66916246895232E+00
 s    2 1.00
 0.89791477428000E+01 0.64596683630063E+00
 0.36863002370000E+01 0.38700574393705E+00
 s    1 1.00
 0.84660076805000E+00 0.10000000000000E+01
 s    1 1.00
 0.33647133771000E+00 0.10000000000000E+01
 s    1 1.00
 0.13647653675000E+00 0.10000000000000E+01
 p    4 1.00
 0.49200380510000E+02 0.11448825101764E-01
 0.11346790537000E+02 0.78422337970864E-01
 0.34273972411000E+01 0.30818094738830E+00
 0.11785525134000E+01 0.72027196368413E+00
 p    1 1.00
 0.41642204972000E+00 0.10000000000000E+01
 p    1 1.00
 0.14260826011000E+00 0.10000000000000E+01
 d    1 1.00
 0.16540000000000E+01 0.10000000000000E+01
 d    1 1.00
 0.46900000000000E+00 0.10000000000000E+01
 f    1 1.00
 0.10930000000000E+01 0.10000000000000E+01
 
    8 0
 s    3 1.00
 0.34061341000000E+02 0.25439307208879E-01
 0.51235746000000E+01 0.19008594890375E+00
 0.11646626000000E+01 0.85244113011042E+00
 s    1 1.00
 0.32723041000000E+00 0.10000000000000E+01
 s    1 1.00
 0.10307241000000E+00 0.10000000000000E+01
 p    1 1.00
 0.80000000000000E+00 0.10000000000000E+01
 
    9 0
 s    3 1.00
 0.34061341000000E+02 0.25439307208879E-01
 0.51235746000000E+01 0.19008594890375E+00
 0.11646626000000E+01 0.85244113011042E+00
 s    1 1.00
 0.32723041000000E+00 0.10000000000000E+01
 s    1 1.00
 0.10307241000000E+00 0.10000000000000E+01
 p    1 1.00
 0.80000000000000E+00 0.10000000000000E+01
 
   10 0
 s    3 1.00
 0.34061341000000E+02 0.25439307208879E-01
 0.51235746000000E+01 0.19008594890375E+00
 0.11646626000000E+01 0.85244113011042E+00
 s    1 1.00
 0.32723041000000E+00 0.10000000000000E+01
 s    1 1.00
 0.10307241000000E+00 0.10000000000000E+01
 p    1 1.00
 0.80000000000000E+00 0.10000000000000E+01
 
   11 0
 s    3 1.00
 0.34061341000000E+02 0.25439307208879E-01
 0.51235746000000E+01 0.19008594890375E+00
 0.11646626000000E+01 0.85244113011042E+00
 s    1 1.00
 0.32723041000000E+00 0.10000000000000E+01
 s    1 1.00
 0.10307241000000E+00 0.10000000000000E+01
 p    1 1.00
 0.80000000000000E+00 0.10000000000000E+01
 
   12 0
 s    3 1.00
 0.34061341000000E+02 0.25439307208879E-01
 0.51235746000000E+01 0.19008594890375E+00
 0.11646626000000E+01 0.85244113011042E+00
 s    1 1.00
 0.32723041000000E+00 0.10000000000000E+01
 s    1 1.00
 0.10307241000000E+00 0.10000000000000E+01
 p    1 1.00
 0.80000000000000E+00 0.10000000000000E+01
 
   13 0
 s    3 1.00
 0.34061341000000E+02 0.25439307208879E-01
 0.51235746000000E+01 0.19008594890375E+00
 0.11646626000000E+01 0.85244113011042E+00
 s    1 1.00
 0.32723041000000E+00 0.10000000000000E+01
 s    1 1.00
 0.10307241000000E+00 0.10000000000000E+01
 p    1 1.00
 0.80000000000000E+00 0.10000000000000E+01
 
   14 0
 s    3 1.00
 0.34061341000000E+02 0.25439307208879E-01
 0.51235746000000E+01 0.19008594890375E+00
 0.11646626000000E+01 0.85244113011042E+00
 s    1 1.00
 0.32723041000000E+00 0.10000000000000E+01
 s    1 1.00
 0.10307241000000E+00 0.10000000000000E+01
 p    1 1.00
 0.80000000000000E+00 0.10000000000000E+01
 
   15 0
 s    3 1.00
 0.34061341000000E+02 0.25439307208879E-01
 0.51235746000000E+01 0.19008594890375E+00
 0.11646626000000E+01 0.85244113011042E+00
 s    1 1.00
 0.32723041000000E+00 0.10000000000000E+01
 s    1 1.00
 0.10307241000000E+00 0.10000000000000E+01
 p    1 1.00
 0.80000000000000E+00 0.10000000000000E+01
 
   16 0
 s    3 1.00
 0.34061341000000E+02 0.25439307208879E-01
 0.51235746000000E+01 0.19008594890375E+00
 0.11646626000000E+01 0.85244113011042E+00
 s    1 1.00
 0.32723041000000E+00 0.10000000000000E+01
 s    1 1.00
 0.10307241000000E+00 0.10000000000000E+01
 p    1 1.00
 0.80000000000000E+00 0.10000000000000E+01
 
   17 0
 s    3 1.00
 0.34061341000000E+02 0.25439307208879E-01
 0.51235746000000E+01 0.19008594890375E+00
 0.11646626000000E+01 0.85244113011042E+00
 s    1 1.00
 0.32723041000000E+00 0.10000000000000E+01
 s    1 1.00
 0.10307241000000E+00 0.10000000000000E+01
 p    1 1.00
 0.80000000000000E+00 0.10000000000000E+01
 
   18 0
 s    3 1.00
 0.34061341000000E+02 0.25439307208879E-01
 0.51235746000000E+01 0.19008594890375E+00
 0.11646626000000E+01 0.85244113011042E+00
 s    1 1.00
 0.32723041000000E+00 0.10000000000000E+01
 s    1 1.00
 0.10307241000000E+00 0.10000000000000E+01
 p    1 1.00
 0.80000000000000E+00 0.10000000000000E+01
 
[MO]
 Sym=     1a   
 Ene= -.19130565197179E+02
 Spin= Alpha
 Occup= 2.000000
     1 0.14670928316585E-05
     2 -.67779907220638E-05
     3 -.89855485857410E-04
     4 0.82567150924341E-03
     5 -.22912900317766E-02
     6 -.15719705360154E-04
     7 -.14982458896383E-05
     8 0.29378626243591E-04
     9 0.70134948491996E-03
    10 0.16714208378481E-03
    11 -.50212328934700E-03
    12 -.51527927275028E-03
    13 -.34556467325621E-04
    14 0.16443676245523E-03
    15 0.11627016427146E-04
    16 -.45548656030989E-05
    17 -.70721508240473E-05
    18 0.38682133972240E-05
    19 -.69562345350074E-05
    20 -.90435635287755E-05
    21 0.11799261453808E-03
    22 -.22576139875593E-04
    23 -.95416474662484E-04
    24 0.10508587294323E-03
    25 -.10409251476491E-03
    26 -.32830040553595E-04
    27 0.29571148080977E-05
    28 -.29453432074163E-05
    29 0.21166856527887E-05
    30 -.35368511648297E-05
    31 0.65961509482576E-05
    32 -.50190106393146E-05
    33 -.43053467207698E-06
    34 -.26445583709475E-05
    35 0.21791788353341E-05
    36 -.62560050563529E-05
    37 0.37252705600536E-05
    38 -.19241553896801E-04
    39 0.47927155315194E-03
    40 -.17933695193618E-02
    41 -.36910218077203E-03
    42 -.13577082250409E-05
    43 -.35562450790777E-04
    44 0.12621643470083E-04
    45 0.29700017587710E-03
    46 0.30150215400886E-03
    47 -.41539092115168E-03
    48 -.17841744044726E-02
    49 -.64168289808812E-04
    50 0.32504312225870E-05
    51 0.20706932405897E-04
    52 -.77388947363279E-05
    53 -.12968037669569E-04
    54 0.65870953571703E-05
    55 -.17716339898583E-04
    56 -.28651433967974E-05
    57 -.25279155421036E-03
    58 0.58981764658436E-04
    59 0.19380978955193E-03
    60 -.33632968333309E-04
    61 0.99009213168223E-04
    62 0.81918552971309E-04
    63 0.52527793017774E-05
    64 -.15457498237527E-04
    65 0.87373348144526E-05
    66 -.64556494623892E-05
    67 0.20750282176223E-04
    68 -.15504433104280E-04
    69 -.59169349135765E-06
    70 -.11872083506536E-07
    71 0.37820683519048E-05
    72 0.11584496452267E-05
    73 -.18163228435644E-02
    74 -.26432680169230E-02
    75 -.44969403812784E-03
    76 0.13253293976362E-02
    77 -.58136768950704E-03
    78 -.21980477732734E-04
    79 -.18474525586796E-04
    80 0.21701542733655E-04
    81 0.39254701991737E-03
    82 0.17287954124825E-03
    83 -.22215628142347E-03
    84 -.10679386684104E-02
    85 -.21502748727858E-03
    86 -.58486087438078E-03
    87 0.11432585600110E-04
    88 0.19966336913252E-05
    89 -.13429219291435E-04
    90 0.17102384511652E-04
    91 0.20034595746000E-05
    92 0.37666549809794E-05
    93 0.42528367710056E-05
    94 -.34752231923966E-04
    95 0.30499395152961E-04
    96 -.57025470462156E-04
    97 -.13604330922120E-04
    98 -.38168632141066E-04
    99 -.56310475702306E-06
   100 -.36509950206255E-05
   101 0.17079501988331E-05
   102 0.36491305401938E-05
   103 0.19678148281383E-05
   104 0.13251685845778E-06
   105 -.28936462310996E-05
   106 0.29305090028409E-05
   107 -.24239725065228E-05
   108 0.21442970371940E-05
   109 0.85055804877161E-05
   110 -.43384205389197E-04
   111 0.63440789796968E-03
   112 -.13470857762165E-02
   113 0.12276917549427E-01
   114 0.79643507002791E-04
   115 0.72193488342798E-04
   116 -.23136845482369E-04
   117 -.15953398057792E-03
   118 -.48346611367060E-03
   119 -.19700865827655E-03
   120 -.40523393347680E-03
   121 0.45893263781119E-02
   122 0.12457255463585E-02
   123 0.53967438712471E-04
   124 -.27331497295578E-04
   125 -.26635941416894E-04
   126 0.35158869652353E-04
   127 -.17905969063977E-04
   128 -.19016263244414E-04
   129 -.71414654695937E-03
   130 0.17718295208267E-03
   131 0.53696359487669E-03
   132 -.60221148751748E-03
   133 0.11203676585109E-03
   134 -.40513704185714E-04
   135 0.13889741478997E-04
   136 0.85819967324183E-05
   137 0.49557824450632E-06
   138 -.31853308448612E-04
   139 -.41713481027180E-04
   140 -.23033560292634E-04
   141 0.13218264766451E-04
   142 0.30199524181359E-04
   143 0.22368672306902E-04
   144 -.19100536522954E-04
   145 0.22711944040234E-04
   146 -.11671627501278E-03
   147 -.18016022465735E-02
   148 0.70145660554686E-02
   149 -.19556669419814E-01
   150 -.19016689134349E-03
   151 0.53127034007723E-04
   152 0.12244702520741E-03
   153 0.52226254175511E-02
   154 -.15975306496692E-03
   155 -.25569990416124E-02
   156 0.37983717929757E-03
   157 0.19654199260003E-02
   158 0.27214270948532E-02
   159 0.25676887696989E-03
   160 -.14055424992802E-03
   161 -.11621462704187E-03
   162 0.10413547271305E-03
   163 -.11406269350554E-03
   164 -.36662492077431E-04
   165 0.14039925329944E-02
   166 -.76386782507693E-03
   167 -.64012470791744E-03
   168 0.13899427462707E-03
   169 -.12443748134617E-02
   170 0.32214543486281E-03
   171 0.13673602754209E-03
   172 -.48304253798444E-04
   173 0.71282468392079E-04
   174 -.10402683618606E-03
   175 0.85976595819305E-04
   176 -.14347848664264E-03
   177 -.79423795348374E-04
   178 -.21169638761870E-04
   179 0.47843019685434E-04
   180 -.16298130169216E-04
   181 0.43509716794546E+00
   182 0.63953199298083E+00
   183 0.36179881696629E-01
   184 -.27889700429112E-01
   185 0.12218789463632E-01
   186 -.12066832851625E-02
   187 0.83803987367169E-03
   188 0.12501564822156E-02
   189 0.40191466740677E-02
   190 -.71981231933844E-03
   191 -.24121931436021E-02
   192 -.13122637741267E-02
   193 0.32907740686407E-03
   194 0.71132780012679E-03
   195 0.90562072452581E-04
   196 -.23143008414659E-04
   197 -.67419064037922E-04
   198 0.95083836600533E-04
   199 -.32594123210570E-04
   200 0.58330732645464E-04
   201 -.62700509144199E-03
   202 0.22208593290281E-03
   203 0.40491915853917E-03
   204 -.49848583031487E-03
   205 0.26755346495925E-03
   206 -.22663410576859E-03
   207 0.65976572746138E-04
   208 -.12462206915975E-04
   209 0.50738927872200E-04
   210 -.66055149167511E-04
   211 0.24806871306144E-04
   212 -.45448931851573E-04
   213 -.22461711782184E-04
   214 -.80870662178712E-05
   215 -.22624483245045E-04
   216 -.38389052767814E-04
   217 0.77636475290904E-06
   218 -.43997628816854E-05
   219 0.14761377641786E-04
   220 -.45571131414183E-04
   221 0.87723040873951E-03
   222 0.73105715248894E-05
   223 0.59374362292338E-05
   224 0.13551404342677E-04
   225 -.17463854135828E-04
   226 -.78824932714933E-05
   227 -.11611291037465E-03
   228 0.26729813071311E-03
   229 0.17989148646821E-05
   230 -.19758703189146E-03
   231 0.22580316476622E-05
   232 0.41832259966356E-06
   233 -.26763542473257E-05
   234 0.50344575470592E-05
   235 0.28042708465031E-05
   236 -.13959459795795E-05
   237 -.26234123032868E-04
   238 0.20393576646783E-05
   239 0.24194765368189E-04
   240 -.21321751345496E-04
   241 -.18873487493278E-04
   242 0.20737291842878E-04
   243 -.61556741759948E-06
   244 0.17829280510952E-05
   245 -.15572047698062E-05
   246 0.49033204381885E-06
   247 -.51692859376501E-06
   248 0.11833953596386E-05
   249 0.33553831047301E-06
   250 -.18751203989790E-05
   251 0.90581407246560E-06
   252 0.18302816873007E-05
   253 -.97829352655581E-05
   254 0.51331180677295E-04
   255 0.34621349216814E-03
   256 0.64212821495022E-05
   257 -.67435889801217E-05
   258 0.78038796705920E-05
   259 0.31791819352047E-05
   260 0.93749674158261E-04
   261 0.95554565409924E-05
   262 -.84670890359625E-05
   263 -.14302449903528E-04
   264 0.14674442841242E-04
   265 -.15722386688588E-04
   266 -.38118206454985E-04
   267 0.77432153119713E-04
   268 0.23895323239895E-04
   269 0.15794449221057E-05
   270 0.10000610977380E-05
   271 -.40060271022075E-04
   272 0.41124267905012E-03
   273 -.35314759237410E-03
   274 0.39090423536189E-05
   275 -.62210823419664E-04
   276 -.24102168514310E-04
   277 0.49021222777189E-04
   278 -.12856031960843E-02
   279 -.36078898505272E-03
   280 0.18981450870846E-03
   281 0.29463688958216E-04
   282 -.13760363292993E-03
   283 -.40622815787465E-04
   284 -.57648324941073E-03
   285 0.96885143839994E-03
   286 0.17762616722451E-03
   287 0.10912939813203E-04
   288 -.96417808087942E-05
   289 0.27218818708224E-04
   290 0.11169653794120E-02
   291 0.30564134516556E-02
   292 0.23763686217773E-04
   293 -.56437408176232E-04
   294 -.14363725512450E-03
   295 0.37107650088851E-04
   296 0.13456325801188E-02
   297 0.17072905006676E-02
   298 0.76210562708418E-04
   299 -.98135715885208E-04
   300 -.89443043745410E-04
   301 0.88006162523910E-03
   302 0.86016479340996E-03
   303 -.10217724014008E-02
   304 -.29340763668431E-03
   305 -.68600100865949E-03
   306 -.44727607097487E-03
   307 0.15627766314486E-04
   308 -.17007685089170E-03
   309 0.39727620792388E-04
   310 -.22784565788477E-05
   311 0.20253473586145E-04
   312 0.33423269770381E-05
   313 0.15706024042879E-04
   314 -.80158004314668E-04
   315 -.88068093972935E-04
   316 -.98807554629976E-05
   317 -.10782091439546E-05
   318 -.96106219821960E-06
 Sym=     2a   
 Ene= -.19130155252557E+02
 Spin= Alpha
 Occup= 2.000000
     1 0.65409110682882E-05
     2 -.33314224005054E-04
     3 0.46006133530908E-03
     4 -.62539578295480E-03
     5 0.46819933515293E-02
     6 0.15313397048742E-03
     7 -.30968101299686E-04
     8 0.15401601240331E-04
     9 -.66960626684385E-03
    10 -.38003031426454E-04
    11 0.21454679852904E-03
    12 0.89509256303111E-03
    13 0.90510037814655E-03
    14 -.85626086248973E-03
    15 0.29268031823154E-04
    16 -.14931821660831E-04
    17 -.14336210162323E-04
    18 -.35828831543459E-04
    19 0.55715316255106E-04
    20 -.13863836714173E-04
    21 -.67553450170599E-03
    22 0.30474717176479E-03
    23 0.37078732994120E-03
    24 0.28943106619002E-03
    25 -.46170632066464E-03
    26 0.22443388794359E-03
    27 -.55951303200317E-04
    28 -.80398292684033E-05
    29 0.99716929427356E-05
    30 0.38373913595678E-04
    31 0.80844802164053E-05
    32 -.12940634404637E-04
    33 0.36692636835688E-04
    34 0.27020826465801E-05
    35 -.43779555779023E-06
    36 -.19643222896511E-04
    37 0.25099111645840E-04
    38 -.12870158100318E-03
    39 -.17467688174460E-02
    40 0.72159777870077E-02
    41 -.95765572036365E-02
    42 -.23939971121619E-04
    43 0.14687121308120E-03
    44 -.18014236282872E-03
    45 0.33618617557203E-02
    46 -.34236227251893E-02
    47 0.38022353896322E-02
    48 0.14694754792806E-02
    49 0.35389974381919E-03
    50 -.15387153144463E-02
    51 0.14073466409310E-03
    52 -.80023480597813E-04
    53 -.60711183495285E-04
    54 -.17504285926443E-03
    55 0.19567162013659E-03
    56 -.91859856259536E-04
    57 0.29154312603573E-03
    58 -.26280071452627E-03
    59 -.28742411509466E-04
    60 -.98989654788699E-03
    61 0.96312754244114E-03
    62 -.12453844561052E-02
    63 -.10764254080167E-04
    64 0.89864629335569E-04
    65 -.85669561936828E-04
    66 -.15314699066051E-05
    67 -.92470652580861E-04
    68 0.10025901894905E-03
    69 0.15973232216805E-04
    70 -.28095399399431E-04
    71 0.14678759506975E-04
    72 -.13491265955166E-03
    73 0.43512672551956E+00
    74 0.63937162596138E+00
    75 0.37695277734086E-01
    76 -.31742424276704E-01
    77 0.78846699505860E-02
    78 0.42856863290061E-03
    79 0.13369294698745E-02
    80 -.14218482543750E-02
    81 -.11338494779081E-02
    82 -.33929676041553E-02
    83 0.36035451960101E-02
    84 -.76142957628300E-03
    85 0.98919094778941E-04
    86 0.33907369343835E-03
    87 0.22010973057464E-03
    88 -.11557924381632E-03
    89 -.10453048675833E-03
    90 -.34774095538722E-04
    91 0.29018853236441E-04
    92 -.72246375025263E-04
    93 -.12885614524993E-02
    94 0.67447388516264E-03
    95 0.61408756733662E-03
    96 0.18289906794753E-03
    97 -.16095082823045E-03
    98 0.42927612790923E-03
    99 -.50614016542098E-04
   100 0.51850906309873E-04
   101 -.56021105640422E-04
   102 0.32239532480199E-04
   103 -.72820886990500E-04
   104 0.82505412203339E-04
   105 0.35666296481259E-04
   106 0.32555962681900E-05
   107 -.73452119713314E-05
   108 -.28276775150885E-04
   109 0.28915702526620E-04
   110 -.14784751737865E-03
   111 -.17405218133339E-02
   112 0.72793793871385E-02
   113 -.10189658156304E-01
   114 0.17764215567224E-03
   115 0.34712584010675E-04
   116 -.11212542974894E-03
   117 -.61891460919634E-02
   118 -.13362628934296E-02
   119 0.23323342672741E-02
   120 0.20738250114234E-03
   121 -.11860437497299E-02
   122 -.15130103567727E-02
   123 0.26472589716596E-03
   124 -.13232542990008E-03
   125 -.13240046726588E-03
   126 0.10855781315933E-03
   127 -.10930937914305E-03
   128 -.40087768115866E-04
   129 0.15823897952262E-02
   130 -.79250225381194E-03
   131 -.78988754141422E-03
   132 0.61277559372027E-03
   133 -.12452158827559E-02
   134 -.78316540360139E-04
   135 -.13350734915314E-03
   136 0.71515317198391E-04
   137 -.70579169794633E-04
   138 0.96645171632358E-04
   139 -.11081498994873E-03
   140 0.13768663532937E-03
   141 0.82473733288974E-04
   142 0.14867123535892E-04
   143 -.42994742455594E-04
   144 0.45870970346882E-04
   145 0.77310955921716E-05
   146 -.37709427331717E-04
   147 0.42662086720424E-03
   148 -.16818474060047E-03
   149 0.64648994657312E-02
   150 -.70620645902809E-04
   151 -.34837633917606E-04
   152 0.32119716669581E-05
   153 -.18989311863419E-03
   154 -.11313409552290E-03
   155 0.38672105087583E-04
   156 -.12401739969640E-02
   157 -.17167062988749E-02
   158 -.81157801738088E-03
   159 0.66674299070941E-04
   160 -.37663345794549E-04
   161 -.29010953276392E-04
   162 0.44716486765142E-04
   163 -.28733064607824E-04
   164 -.88157582024093E-05
   165 -.61185926467151E-03
   166 0.33154512381302E-03
   167 0.28031414085850E-03
   168 -.40967687934556E-03
   169 0.28579100151433E-03
   170 -.27129477471341E-04
   171 -.14987364759556E-04
   172 -.12200269533331E-04
   173 -.54495545120564E-05
   174 0.28803907871672E-04
   175 0.32283236885829E-04
   176 0.25563152252071E-04
   177 -.86962480281005E-05
   178 -.15914857673620E-04
   179 -.18251807650442E-04
   180 0.14383622745613E-04
   181 0.18106645626046E-02
   182 0.26863576491458E-02
   183 -.11323680344190E-03
   184 0.10310069207353E-02
   185 -.68459558371679E-03
   186 0.15720892268233E-04
   187 0.73851840597979E-05
   188 0.54827174817888E-05
   189 -.47104211772127E-03
   190 -.12325780530632E-03
   191 0.75824779694115E-04
   192 0.28080270304101E-03
   193 0.30727705371724E-03
   194 0.10781289431950E-03
   195 0.74949489077630E-05
   196 0.19462468215913E-06
   197 -.76895735899222E-05
   198 0.17899127378058E-04
   199 0.58823362101009E-05
   200 -.41609293637417E-05
   201 0.37213797663446E-04
   202 -.44467305917213E-04
   203 0.72535082537672E-05
   204 -.63059911427446E-04
   205 -.59823426378108E-04
   206 -.44128981484372E-05
   207 -.97050856292812E-06
   208 -.10293823728840E-06
   209 0.77159667096223E-06
   210 0.14953950752080E-05
   211 0.13017358268894E-05
   212 0.24496304228524E-06
   213 -.19332120353621E-06
   214 -.11636296892528E-05
   215 -.12801686067757E-05
   216 0.66541075975667E-06
   217 0.23907237669277E-05
   218 -.13818882366198E-04
   219 0.11463536974851E-03
   220 -.72469666121651E-03
   221 0.81586217574355E-03
   222 -.32343490571412E-04
   223 0.12513385974728E-04
   224 -.39550164847905E-04
   225 0.25156414507771E-03
   226 -.68695127647971E-04
   227 0.58776246569540E-03
   228 0.35720417215923E-03
   229 0.89924559131865E-04
   230 -.62029417373529E-04
   231 -.31726929298858E-05
   232 -.14403474411479E-05
   233 0.46130403710337E-05
   234 0.24774598277559E-06
   235 0.93752665864395E-05
   236 0.43789391763249E-06
   237 0.11472958093590E-03
   238 -.66947493279737E-05
   239 -.10803483160792E-03
   240 -.65363667379144E-04
   241 0.17125824161818E-04
   242 -.30762688443064E-04
   243 0.11628865610601E-05
   244 0.69400602869982E-05
   245 0.73662319591532E-07
   246 0.73507679427040E-06
   247 -.63868548561313E-05
   248 -.19042905618135E-05
   249 -.22952528346612E-05
   250 -.29242130856735E-05
   251 0.18054621894213E-05
   252 -.73488522446370E-06
   253 -.64257320158704E-05
   254 -.46921339955709E-03
   255 0.30108666517481E-03
   256 0.13365974194306E-03
   257 -.10231505508892E-03
   258 0.46187176560001E-04
   259 0.15271390464107E-03
   260 0.58083681308809E-03
   261 -.90328261331254E-03
   262 -.36599435666217E-05
   263 -.61205149243770E-04
   264 0.94554947687234E-04
   265 0.46398422626266E-04
   266 0.94331252050311E-03
   267 0.74945370935390E-03
   268 -.96586741568515E-04
   269 -.76210372033721E-04
   270 0.61829265948302E-04
   271 0.12056079875189E-04
   272 0.12167286684868E-02
   273 0.14478070289827E-02
   274 -.54049437553401E-04
   275 -.88599154725504E-04
   276 0.12491679017954E-03
   277 0.61752112471739E-04
   278 0.10633483591282E-02
   279 0.63991491861081E-03
   280 -.79944770002908E-04
   281 0.61335563603052E-04
   282 0.59938139170950E-04
   283 0.62592393107255E-04
   284 0.67493493584300E-03
   285 0.13433921940445E-02
   286 0.18491592249665E-03
   287 0.68281166553787E-04
   288 0.64041727674611E-04
   289 -.39348106395696E-04
   290 -.65747932722299E-03
   291 -.41557624971831E-03
   292 -.15849252133005E-03
   293 -.22785589782751E-05
   294 0.35163124180117E-04
   295 0.66953678144920E-05
   296 -.60004656209413E-03
   297 -.18356181074219E-03
   298 -.14794047724192E-03
   299 -.21466259469792E-04
   300 0.58583493327955E-04
   301 0.76804165167729E-05
   302 0.17794263417860E-03
   303 -.77608123013486E-04
   304 -.80081363309892E-04
   305 -.59527596659898E-04
   306 -.15681965541118E-04
   307 0.27583609418107E-04
   308 -.18697893252828E-03
   309 -.18829167135800E-04
   310 0.32889240171497E-04
   311 -.40493916321942E-05
   312 0.22172088263169E-05
   313 0.87038810835439E-05
   314 -.52167004930876E-03
   315 -.35768979671781E-04