[Molden Format]
[Title]
                                                                                
[Atoms] AU
 c     1    6 -.15744791664047E+01 -.22445538153296E+01 -.11897630107593E+00
 c     2    6 0.12639663777289E+01 -.23385710640903E+01 -.65386129420705E+00
 c     3    6 0.28342673786306E+01 -.37725520069487E+00 0.81533657242173E+00
 c     4    6 0.27707665738325E+01 0.22550479192998E+01 -.32134315298561E+00
 o     5    8 0.45995298033511E+01 0.32477579605106E+01 -.12299310869117E+01
 o     6    8 0.54863390905501E+00 0.35301657710521E+01 -.35822158553407E+00
 c     7    6 -.17411651143639E+01 0.25379728718707E+01 0.72273429380820E+00
 c     8    6 -.28368124781356E+01 0.28902684384576E+00 -.70299551443145E+00
 h     9    1 -.18910788186914E+01 -.27003653001537E+01 0.18769810371086E+01
 h    10    1 -.25139087212389E+01 -.37324210360958E+01 -.12027026645527E+01
 h    11    1 0.16171116606659E+01 -.21094920013790E+01 -.26787862808071E+01
 h    12    1 0.19651796218013E+01 -.42153929078457E+01 -.15586461755688E+00
 h    13    1 0.48186807813950E+01 -.91735157671816E+00 0.81454288584216E+00
 h    14    1 0.22112312155781E+01 -.31436006963035E+00 0.27872206039503E+01
 h    15    1 -.30364425735422E+01 0.41343154943019E+01 0.62841039103674E+00
 h    16    1 -.14424137731669E+01 0.20910571453385E+01 0.27202350236790E+01
 h    17    1 -.48428867661837E+01 0.16381958271638E+00 -.21451046208612E+00
 h    18    1 -.27501780205861E+01 0.70059938300087E+00 -.27282678476974E+01
[GTO]
    1 0
 s    6 1.00
 0.13575349682000E+05 0.60645503603591E-03
 0.20352333680000E+04 0.46979088884982E-02
 0.46322562359000E+03 0.24332477647552E-01
 0.13120019598000E+03 0.97399968307759E-01
 0.42853015891000E+02 0.30195584253780E+00
 0.15584185766000E+02 0.66233609137875E+00
 s    2 1.00
 0.62067138508000E+01 0.65595308539952E+00
 0.25764896527000E+01 0.37585633285142E+00
 s    1 1.00
 0.57696339419000E+00 0.10000000000000E+01
 s    1 1.00
 0.22972831358000E+00 0.10000000000000E+01
 s    1 1.00
 0.95164440028000E-01 0.10000000000000E+01
 p    4 1.00
 0.34697232244000E+02 0.11327220003114E-01
 0.79582622826000E+01 0.76169659202087E-01
 0.23780826883000E+01 0.30192252202676E+00
 0.81433208183000E+00 0.72785027349547E+00
 p    1 1.00
 0.28887547253000E+00 0.10000000000000E+01
 p    1 1.00
 0.10056823671000E+00 0.10000000000000E+01
 d    1 1.00
 0.10970000000000E+01 0.10000000000000E+01
 d    1 1.00
 0.31800000000000E+00 0.10000000000000E+01
 f    1 1.00
 0.76100000000000E+00 0.10000000000000E+01
 
    2 0
 s    6 1.00
 0.13575349682000E+05 0.60645503603591E-03
 0.20352333680000E+04 0.46979088884982E-02
 0.46322562359000E+03 0.24332477647552E-01
 0.13120019598000E+03 0.97399968307759E-01
 0.42853015891000E+02 0.30195584253780E+00
 0.15584185766000E+02 0.66233609137875E+00
 s    2 1.00
 0.62067138508000E+01 0.65595308539952E+00
 0.25764896527000E+01 0.37585633285142E+00
 s    1 1.00
 0.57696339419000E+00 0.10000000000000E+01
 s    1 1.00
 0.22972831358000E+00 0.10000000000000E+01
 s    1 1.00
 0.95164440028000E-01 0.10000000000000E+01
 p    4 1.00
 0.34697232244000E+02 0.11327220003114E-01
 0.79582622826000E+01 0.76169659202087E-01
 0.23780826883000E+01 0.30192252202676E+00
 0.81433208183000E+00 0.72785027349547E+00
 p    1 1.00
 0.28887547253000E+00 0.10000000000000E+01
 p    1 1.00
 0.10056823671000E+00 0.10000000000000E+01
 d    1 1.00
 0.10970000000000E+01 0.10000000000000E+01
 d    1 1.00
 0.31800000000000E+00 0.10000000000000E+01
 f    1 1.00
 0.76100000000000E+00 0.10000000000000E+01
 
    3 0
 s    6 1.00
 0.13575349682000E+05 0.60645503603591E-03
 0.20352333680000E+04 0.46979088884982E-02
 0.46322562359000E+03 0.24332477647552E-01
 0.13120019598000E+03 0.97399968307759E-01
 0.42853015891000E+02 0.30195584253780E+00
 0.15584185766000E+02 0.66233609137875E+00
 s    2 1.00
 0.62067138508000E+01 0.65595308539952E+00
 0.25764896527000E+01 0.37585633285142E+00
 s    1 1.00
 0.57696339419000E+00 0.10000000000000E+01
 s    1 1.00
 0.22972831358000E+00 0.10000000000000E+01
 s    1 1.00
 0.95164440028000E-01 0.10000000000000E+01
 p    4 1.00
 0.34697232244000E+02 0.11327220003114E-01
 0.79582622826000E+01 0.76169659202087E-01
 0.23780826883000E+01 0.30192252202676E+00
 0.81433208183000E+00 0.72785027349547E+00
 p    1 1.00
 0.28887547253000E+00 0.10000000000000E+01
 p    1 1.00
 0.10056823671000E+00 0.10000000000000E+01
 d    1 1.00
 0.10970000000000E+01 0.10000000000000E+01
 d    1 1.00
 0.31800000000000E+00 0.10000000000000E+01
 f    1 1.00
 0.76100000000000E+00 0.10000000000000E+01
 
    4 0
 s    6 1.00
 0.13575349682000E+05 0.60645503603591E-03
 0.20352333680000E+04 0.46979088884982E-02
 0.46322562359000E+03 0.24332477647552E-01
 0.13120019598000E+03 0.97399968307759E-01
 0.42853015891000E+02 0.30195584253780E+00
 0.15584185766000E+02 0.66233609137875E+00
 s    2 1.00
 0.62067138508000E+01 0.65595308539952E+00
 0.25764896527000E+01 0.37585633285142E+00
 s    1 1.00
 0.57696339419000E+00 0.10000000000000E+01
 s    1 1.00
 0.22972831358000E+00 0.10000000000000E+01
 s    1 1.00
 0.95164440028000E-01 0.10000000000000E+01
 p    4 1.00
 0.34697232244000E+02 0.11327220003114E-01
 0.79582622826000E+01 0.76169659202087E-01
 0.23780826883000E+01 0.30192252202676E+00
 0.81433208183000E+00 0.72785027349547E+00
 p    1 1.00
 0.28887547253000E+00 0.10000000000000E+01
 p    1 1.00
 0.10056823671000E+00 0.10000000000000E+01
 d    1 1.00
 0.10970000000000E+01 0.10000000000000E+01
 d    1 1.00
 0.31800000000000E+00 0.10000000000000E+01
 f    1 1.00
 0.76100000000000E+00 0.10000000000000E+01
 
    5 0
 s    6 1.00
 0.27032382631000E+05 0.57227335211155E-03
 0.40523871392000E+04 0.44353233492995E-02
 0.92232722710000E+03 0.23020107706038E-01
 0.26124070989000E+03 0.92822490667928E-01
 0.85354641351000E+02 0.29378500009671E+00
 0.31035035245000E+02 0.67401604501641E+00
 s    2 1.00
 0.12260860728000E+02 0.63839937025506E+00
 0.49987076005000E+01 0.39534587125718E+00
 s    1 1.00
 0.11703108158000E+01 0.10000000000000E+01
 s    1 1.00
 0.46474740994000E+00 0.10000000000000E+01
 s    1 1.00
 0.18504536357000E+00 0.10000000000000E+01
 p    4 1.00
 0.63274954801000E+02 0.12018332222616E-01
 0.14627049379000E+02 0.83005421790056E-01
 0.44501223456000E+01 0.31991743925964E+00
 0.15275799647000E+01 0.70715542916104E+00
 p    1 1.00
 0.52935117943000E+00 0.10000000000000E+01
 p    1 1.00
 0.17478421270000E+00 0.10000000000000E+01
 d    1 1.00
 0.23140000000000E+01 0.10000000000000E+01
 d    1 1.00
 0.64500000000000E+00 0.10000000000000E+01
 f    1 1.00
 0.14280000000000E+01 0.10000000000000E+01
 
    6 0
 s    6 1.00
 0.27032382631000E+05 0.57227335211155E-03
 0.40523871392000E+04 0.44353233492995E-02
 0.92232722710000E+03 0.23020107706038E-01
 0.26124070989000E+03 0.92822490667928E-01
 0.85354641351000E+02 0.29378500009671E+00
 0.31035035245000E+02 0.67401604501641E+00
 s    2 1.00
 0.12260860728000E+02 0.63839937025506E+00
 0.49987076005000E+01 0.39534587125718E+00
 s    1 1.00
 0.11703108158000E+01 0.10000000000000E+01
 s    1 1.00
 0.46474740994000E+00 0.10000000000000E+01
 s    1 1.00
 0.18504536357000E+00 0.10000000000000E+01
 p    4 1.00
 0.63274954801000E+02 0.12018332222616E-01
 0.14627049379000E+02 0.83005421790056E-01
 0.44501223456000E+01 0.31991743925964E+00
 0.15275799647000E+01 0.70715542916104E+00
 p    1 1.00
 0.52935117943000E+00 0.10000000000000E+01
 p    1 1.00
 0.17478421270000E+00 0.10000000000000E+01
 d    1 1.00
 0.23140000000000E+01 0.10000000000000E+01
 d    1 1.00
 0.64500000000000E+00 0.10000000000000E+01
 f    1 1.00
 0.14280000000000E+01 0.10000000000000E+01
 
    7 0
 s    6 1.00
 0.13575349682000E+05 0.60645503603591E-03
 0.20352333680000E+04 0.46979088884982E-02
 0.46322562359000E+03 0.24332477647552E-01
 0.13120019598000E+03 0.97399968307759E-01
 0.42853015891000E+02 0.30195584253780E+00
 0.15584185766000E+02 0.66233609137875E+00
 s    2 1.00
 0.62067138508000E+01 0.65595308539952E+00
 0.25764896527000E+01 0.37585633285142E+00
 s    1 1.00
 0.57696339419000E+00 0.10000000000000E+01
 s    1 1.00
 0.22972831358000E+00 0.10000000000000E+01
 s    1 1.00
 0.95164440028000E-01 0.10000000000000E+01
 p    4 1.00
 0.34697232244000E+02 0.11327220003114E-01
 0.79582622826000E+01 0.76169659202087E-01
 0.23780826883000E+01 0.30192252202676E+00
 0.81433208183000E+00 0.72785027349547E+00
 p    1 1.00
 0.28887547253000E+00 0.10000000000000E+01
 p    1 1.00
 0.10056823671000E+00 0.10000000000000E+01
 d    1 1.00
 0.10970000000000E+01 0.10000000000000E+01
 d    1 1.00
 0.31800000000000E+00 0.10000000000000E+01
 f    1 1.00
 0.76100000000000E+00 0.10000000000000E+01
 
    8 0
 s    6 1.00
 0.13575349682000E+05 0.60645503603591E-03
 0.20352333680000E+04 0.46979088884982E-02
 0.46322562359000E+03 0.24332477647552E-01
 0.13120019598000E+03 0.97399968307759E-01
 0.42853015891000E+02 0.30195584253780E+00
 0.15584185766000E+02 0.66233609137875E+00
 s    2 1.00
 0.62067138508000E+01 0.65595308539952E+00
 0.25764896527000E+01 0.37585633285142E+00
 s    1 1.00
 0.57696339419000E+00 0.10000000000000E+01
 s    1 1.00
 0.22972831358000E+00 0.10000000000000E+01
 s    1 1.00
 0.95164440028000E-01 0.10000000000000E+01
 p    4 1.00
 0.34697232244000E+02 0.11327220003114E-01
 0.79582622826000E+01 0.76169659202087E-01
 0.23780826883000E+01 0.30192252202676E+00
 0.81433208183000E+00 0.72785027349547E+00
 p    1 1.00
 0.28887547253000E+00 0.10000000000000E+01
 p    1 1.00
 0.10056823671000E+00 0.10000000000000E+01
 d    1 1.00
 0.10970000000000E+01 0.10000000000000E+01
 d    1 1.00
 0.31800000000000E+00 0.10000000000000E+01
 f    1 1.00
 0.76100000000000E+00 0.10000000000000E+01
 
    9 0
 s    3 1.00
 0.34061341000000E+02 0.25439307208879E-01
 0.51235746000000E+01 0.19008594890375E+00
 0.11646626000000E+01 0.85244113011042E+00
 s    1 1.00
 0.32723041000000E+00 0.10000000000000E+01
 s    1 1.00
 0.10307241000000E+00 0.10000000000000E+01
 p    1 1.00
 0.80000000000000E+00 0.10000000000000E+01
 
   10 0
 s    3 1.00
 0.34061341000000E+02 0.25439307208879E-01
 0.51235746000000E+01 0.19008594890375E+00
 0.11646626000000E+01 0.85244113011042E+00
 s    1 1.00
 0.32723041000000E+00 0.10000000000000E+01
 s    1 1.00
 0.10307241000000E+00 0.10000000000000E+01
 p    1 1.00
 0.80000000000000E+00 0.10000000000000E+01
 
   11 0
 s    3 1.00
 0.34061341000000E+02 0.25439307208879E-01
 0.51235746000000E+01 0.19008594890375E+00
 0.11646626000000E+01 0.85244113011042E+00
 s    1 1.00
 0.32723041000000E+00 0.10000000000000E+01
 s    1 1.00
 0.10307241000000E+00 0.10000000000000E+01
 p    1 1.00
 0.80000000000000E+00 0.10000000000000E+01
 
   12 0
 s    3 1.00
 0.34061341000000E+02 0.25439307208879E-01
 0.51235746000000E+01 0.19008594890375E+00
 0.11646626000000E+01 0.85244113011042E+00
 s    1 1.00
 0.32723041000000E+00 0.10000000000000E+01
 s    1 1.00
 0.10307241000000E+00 0.10000000000000E+01
 p    1 1.00
 0.80000000000000E+00 0.10000000000000E+01
 
   13 0
 s    3 1.00
 0.34061341000000E+02 0.25439307208879E-01
 0.51235746000000E+01 0.19008594890375E+00
 0.11646626000000E+01 0.85244113011042E+00
 s    1 1.00
 0.32723041000000E+00 0.10000000000000E+01
 s    1 1.00
 0.10307241000000E+00 0.10000000000000E+01
 p    1 1.00
 0.80000000000000E+00 0.10000000000000E+01
 
   14 0
 s    3 1.00
 0.34061341000000E+02 0.25439307208879E-01
 0.51235746000000E+01 0.19008594890375E+00
 0.11646626000000E+01 0.85244113011042E+00
 s    1 1.00
 0.32723041000000E+00 0.10000000000000E+01
 s    1 1.00
 0.10307241000000E+00 0.10000000000000E+01
 p    1 1.00
 0.80000000000000E+00 0.10000000000000E+01
 
   15 0
 s    3 1.00
 0.34061341000000E+02 0.25439307208879E-01
 0.51235746000000E+01 0.19008594890375E+00
 0.11646626000000E+01 0.85244113011042E+00
 s    1 1.00
 0.32723041000000E+00 0.10000000000000E+01
 s    1 1.00
 0.10307241000000E+00 0.10000000000000E+01
 p    1 1.00
 0.80000000000000E+00 0.10000000000000E+01
 
   16 0
 s    3 1.00
 0.34061341000000E+02 0.25439307208879E-01
 0.51235746000000E+01 0.19008594890375E+00
 0.11646626000000E+01 0.85244113011042E+00
 s    1 1.00
 0.32723041000000E+00 0.10000000000000E+01
 s    1 1.00
 0.10307241000000E+00 0.10000000000000E+01
 p    1 1.00
 0.80000000000000E+00 0.10000000000000E+01
 
   17 0
 s    3 1.00
 0.34061341000000E+02 0.25439307208879E-01
 0.51235746000000E+01 0.19008594890375E+00
 0.11646626000000E+01 0.85244113011042E+00
 s    1 1.00
 0.32723041000000E+00 0.10000000000000E+01
 s    1 1.00
 0.10307241000000E+00 0.10000000000000E+01
 p    1 1.00
 0.80000000000000E+00 0.10000000000000E+01
 
   18 0
 s    3 1.00
 0.34061341000000E+02 0.25439307208879E-01
 0.51235746000000E+01 0.19008594890375E+00
 0.11646626000000E+01 0.85244113011042E+00
 s    1 1.00
 0.32723041000000E+00 0.10000000000000E+01
 s    1 1.00
 0.10307241000000E+00 0.10000000000000E+01
 p    1 1.00
 0.80000000000000E+00 0.10000000000000E+01
 
[MO]
 Sym=     1a   
 Ene= -.19162921549483E+02
 Spin= Alpha
 Occup= 2.000000
     1 -.23872038316700E-05
     2 0.11443829269796E-04
     3 0.26463226478472E-04
     4 -.15411116680898E-02
     5 0.58739493037903E-02
     6 -.59182273413965E-04
     7 -.63027349955387E-04
     8 -.20394622510565E-04
     9 0.72719421529321E-03
    10 -.70838642677916E-03
    11 0.18076774801401E-03
    12 0.70780190970241E-03
    13 0.77510346517245E-03
    14 0.11403971501590E-02
    15 0.99506872431565E-05
    16 -.38391702376672E-04
    17 0.28441015133516E-04
    18 0.17366298534565E-05
    19 -.12291653445356E-04
    20 -.35598752842422E-04
    21 0.50255759438283E-04
    22 0.15375777941743E-04
    23 -.65631537380025E-04
    24 0.23999426703728E-03
    25 -.21267179979397E-04
    26 0.23355134313149E-03
    27 -.42780750858752E-05
    28 0.17895003235551E-06
    29 0.27142589131856E-05
    30 0.90740133469102E-05
    31 0.27957961798700E-05
    32 0.22977678162172E-06
    33 -.33343733239910E-05
    34 -.30358828420236E-05
    35 -.38713372446724E-05
    36 -.14722228901882E-04
    37 -.15332542861410E-05
    38 0.68738184186491E-05
    39 0.23006781161790E-03
    40 -.16086931955007E-02
    41 -.12276680351867E-02
    42 0.17452826305563E-05
    43 0.11326195347183E-04
    44 0.27871414564889E-04
    45 -.33978052496732E-03
    46 -.50194124361298E-03
    47 -.48912650670140E-03
    48 0.14083570932281E-02
    49 0.80747115124512E-03
    50 -.13999394044740E-02
    51 -.34159298630574E-05
    52 -.11951964654154E-04
    53 0.15367894517212E-04
    54 -.18157005932355E-04
    55 -.60973412537634E-05
    56 0.11904183191089E-04
    57 -.88997619673587E-04
    58 -.42165109378202E-04
    59 0.13116272905179E-03
    60 -.86469584935564E-04
    61 -.47976490049075E-04
    62 -.11195447601517E-03
    63 0.96256390513020E-05
    64 0.11792856743048E-04
    65 0.79659482407771E-05
    66 -.18872456314934E-04
    67 -.21606340049628E-04
    68 -.67521710960639E-05
    69 0.59583063675811E-05
    70 0.57845624538047E-05
    71 -.39352699669096E-05
    72 -.11685991769352E-05
    73 0.11011175588887E-04
    74 -.51322805837115E-04
    75 -.38477961988509E-05
    76 0.24191513355056E-02
    77 -.43855506246980E-02
    78 0.69404876510502E-04
    79 0.15363051243156E-03
    80 -.34758040052562E-04
    81 -.17964449470673E-02
    82 0.70605657921484E-03
    83 -.49380534846320E-03
    84 -.18764530473375E-02
    85 -.12639447745761E-02
    86 0.16879319257241E-02
    87 0.25508780521957E-04
    88 0.29918965927555E-04
    89 -.55427746449512E-04
    90 0.40452840449076E-05
    91 -.52507320869868E-05
    92 -.68218036292190E-04
    93 -.64615814084610E-03
    94 0.33572000308951E-03
    95 0.31043813775660E-03
    96 -.93169878496686E-04
    97 0.26864847089939E-03
    98 0.25249670316253E-03
    99 -.65918442472723E-05
   100 0.18672154242267E-04
   101 0.66796998485817E-05
   102 0.89040018174132E-05
   103 -.18038739498472E-04
   104 0.50643200833491E-05
   105 -.60114717018119E-07
   106 -.70125842047692E-05
   107 -.14026077841783E-04
   108 0.13723441599499E-05
   109 0.41368516864911E-04
   110 -.22172349900322E-03
   111 -.71752212855510E-03
   112 0.47319289266933E-02
   113 0.19313228931788E-02
   114 -.33577633186470E-04
   115 -.18743122281877E-04
   116 0.17621874402793E-04
   117 -.71827063204658E-02
   118 0.38317133497031E-02
   119 -.38245166721825E-06
   120 0.28870520188886E-02
   121 -.23235006512908E-02
   122 0.65238344346344E-03
   123 0.18606706364233E-03
   124 -.14554435469181E-04
   125 -.17151262817315E-03
   126 -.19652053131823E-03
   127 -.86302644835380E-05
   128 -.53464106712104E-04
   129 0.15039046530028E-02
   130 -.44330426416944E-03
   131 -.10606003888333E-02
   132 -.25960739932176E-02
   133 0.51039478252795E-03
   134 0.52576034849504E-03
   135 -.69992811816467E-04
   136 -.24755659303427E-04
   137 -.47677825430817E-05
   138 -.37163155845561E-04
   139 0.10225118064090E-03
   140 0.59944430682086E-04
   141 0.13106836694034E-03
   142 -.69037978422723E-04
   143 -.53547779161125E-04
   144 0.50763134542666E-04
   145 -.26996230657369E-04
   146 -.29245599873447E-04
   147 -.27637325487112E-03
   148 0.27111438854876E-02
   149 -.82850516605202E-03
   150 -.46448470553679E-04
   151 -.20346853462612E-04
   152 0.59464782769489E-05
   153 -.72723360016826E-03
   154 -.13465714701011E-03
   155 0.31025762842508E-03
   156 -.47124323916662E-03
   157 0.45966016893858E-03
   158 -.27530498509491E-03
   159 0.21383956964806E-04
   160 0.19407737087696E-04
   161 -.40791694052502E-04
   162 -.18179463608990E-04
   163 -.16997516210247E-04
   164 -.40068474324793E-04
   165 -.27869155766041E-04
   166 -.11222241083714E-03
   167 0.14009156660318E-03
   168 0.11123882211296E-03
   169 0.17154901425288E-04
   170 0.14182520121949E-03
   171 0.18753902716808E-04
   172 0.86181427197211E-05
   173 0.12494097878719E-04
   174 -.78825782389360E-05
   175 -.15083181128828E-04
   176 -.10321624889311E-04
   177 -.17278422551984E-04
   178 0.35207293521729E-05
   179 -.64409664153005E-05
   180 -.43084128654491E-05
   181 0.43511783165417E+00
   182 0.63934849515917E+00
   183 0.38095785291891E-01
   184 -.33530346248706E-01
   185 0.75149172817608E-02
   186 0.97561994953341E-04
   187 -.17760859448017E-02
   188 0.79588374773082E-03
   189 -.90373311271073E-03
   190 0.48142544914961E-02
   191 -.19301757330572E-02
   192 -.55357707397329E-03
   193 0.23707743922657E-03
   194 -.40749652083989E-03
   195 0.22776811480917E-03
   196 -.92543429511550E-04
   197 -.13522468529762E-03
   198 -.36168880169797E-04
   199 -.98153282727192E-04
   200 -.33432363297671E-04
   201 -.13498235254894E-02
   202 0.52453584888682E-03
   203 0.82528767660256E-03
   204 0.21023852542966E-03
   205 0.58267481224748E-03
   206 0.22388745285725E-03
   207 -.80809890183747E-05
   208 -.58472759752056E-04
   209 0.33626372880080E-04
   210 -.13234605469434E-04
   211 0.10247024609557E-03
   212 -.51616890305557E-04
   213 0.24076389931743E-04
   214 -.24020806713007E-04
   215 0.65023769475884E-05
   216 -.35012889600481E-04
   217 0.21143660743852E-04
   218 -.10524085082153E-03
   219 -.21390563255231E-02
   220 0.83542796159512E-02
   221 -.12492901669925E-01
   222 -.26947576021162E-03
   223 -.54734362222272E-04
   224 0.11824920323953E-03
   225 0.54568967727136E-02
   226 0.19616543605911E-02
   227 -.26414103438887E-02
   228 -.78375856296176E-03
   229 0.21874755878421E-02
   230 0.13974658560004E-02
   231 0.14696294093926E-03
   232 -.50428528561777E-04
   233 -.96534412377485E-04
   234 0.16615108747437E-03
   235 -.16107806631234E-03
   236 -.82488366527798E-04
   237 0.11258194087205E-02
   238 -.63505590704379E-03
   239 -.49076350167673E-03
   240 0.97894873146501E-03
   241 -.13435089790493E-02
   242 -.43402081176027E-03
   243 0.52635911866686E-04
   244 -.98646162340863E-04
   245 0.10108247429549E-03
   246 -.35019898420599E-04
   247 0.14027239351297E-03
   248 -.15992498304858E-03
   249 -.35598587774359E-04
   250 -.79246786847763E-05
   251 0.24308612733421E-04
   252 -.10671010685668E-03
   253 0.22916110256283E-05
   254 -.10286943858416E-04
   255 0.62404502316392E-04
   256 0.10066107505977E-02
   257 0.40633774795369E-02
   258 0.56227908965164E-04
   259 0.12082242966629E-03
   260 -.17887159578228E-04
   261 0.54287495301745E-03
   262 -.50507541379281E-03
   263 0.11049336056618E-03
   264 0.75821385076084E-03
   265 0.21281953101831E-02
   266 0.44123606355461E-03
   267 0.60151090103856E-04
   268 -.46220792503094E-04
   269 -.13930297600762E-04
   270 0.40861740969910E-04
   271 -.23022011944004E-04
   272 -.14672151827401E-04
   273 -.46693902655845E-03
   274 0.44424633206683E-03
   275 0.22692694491612E-04
   276 -.37845449336549E-03
   277 0.21416128434512E-03
   278 0.16448036605690E-04
   279 0.95542329760963E-05
   280 0.25950444189752E-05
   281 0.36047707494739E-05
   282 -.18913618075664E-04
   283 -.18834341743986E-04
   284 -.12869209541394E-04
   285 0.60952694312113E-05
   286 0.15352724308710E-04
   287 0.80329020779176E-05
   288 0.21019100842254E-05
   289 0.84262966536204E-04
   290 -.31898368341716E-03
   291 -.14656847311679E-02
   292 -.35395766524459E-04
   293 -.81915394509283E-04
   294 0.70728951987353E-05
   295 -.20224691366996E-04
   296 -.35197254346127E-03
   297 0.27346367946440E-03
   298 -.36418848474997E-04
   299 0.26475657429809E-04
   300 -.68839557748771E-04
   301 -.27730924453703E-05
   302 -.27363774148101E-03
   303 -.69657026850040E-03
   304 0.25869427073469E-04
   305 0.18272451955519E-05
   306 -.18625302955187E-04
   307 -.69918193091105E-05
   308 0.28948084651376E-03
   309 0.41469210884135E-03
   310 -.37361452294113E-04
   311 0.59449278144830E-04
   312 -.77880800594267E-05
   313 0.11305883634938E-03
   314 0.13666173037210E-02
   315 0.59851363080049E-03
   316 -.16989399979781E-03
   317 0.10603328885129E-03
   318 -.24430742179074E-04
   319 -.79977647590249E-04
   320 -.41760266068259E-03
   321 -.27757342945898E-03
   322 -.14517974771473E-03
   323 -.14392302047348E-04
   324 0.36617693607310E-04
   325 0.64291092393055E-04
   326 0.54041294461433E-03
   327 0.77966694769767E-03
   328 -.25262391971307E-03
   329 -.91014700723832E-04
   330 0.21841449503086E-04
   331 -.28225680953276E-04
   332 0.11131909079641E-02
   333 0.16580357990053E-02
   334 0.58300635840539E-04
   335 -.73453132551702E-04
   336 -.11781684068664E-04
   337 0.12373795363032E-03
   338 0.61211206826521E-03
   339 -.21245179825952E-03
   340 0.10390410176582E-03
   341 -.82604951102886E-04
   342 0.46625126543301E-06
   343 0.42063885927287E-04
   344 -.25513855211384E-03
   345 0.30066934464056E-04
   346 0.14693983393711E-03
   347 0.62880051258365E-04
   348 -.31334173672219E-06
 Sym=     2a   
 Ene= -.19100266270587E+02
 Spin= Alpha
 Occup= 2.000000
     1 0.14003463910885E-05
     2 -.66623924210448E-05
     3 -.32415353943392E-04
     4 -.98353022357300E-06
     5 0.38110557710706E-03
     6 -.45377991704494E-05
     7 -.13399735549699E-05
     8 0.11222233329572E-04
     9 0.21476974614208E-03
    10 -.19214120667614E-03
    11 -.54631364720597E-04
    12 0.73768139358053E-03
    13 0.83267521958874E-03
    14 0.11668962166469E-02
    15 0.60302795735487E-05
    16 -.60860133601493E-05
    17 0.55733786600618E-07
    18 -.54727680940650E-05
    19 -.89299001690768E-05
    20 -.16070958331205E-04
    21 -.10575933094822E-04
    22 -.24090110382644E-04
    23 0.34666043477466E-04
    24 0.11590192744766E-03
    25 -.65146643393435E-04
    26 0.65233148050247E-04
    27 0.46168395777417E-05
    28 0.18090631432918E-06
    29 0.90486334729388E-05
    30 -.24604688971243E-05
    31 0.15026373457921E-05
    32 -.86331446651778E-05
    33 -.37336713851009E-05
    34 -.17453486356315E-05
    35 -.35068710642049E-05
    36 -.10380378443342E-04
    37 0.31290051629979E-05
    38 -.16315334385765E-04
    39 0.35047633426452E-03
    40 -.19145044429536E-02
    41 0.33630648397962E-02
    42 -.26382626769155E-04
    43 0.99567707860823E-05
    44 0.78120622170660E-05
    45 -.13232711221329E-04
    46 -.27344129428226E-03
    47 -.38150214953710E-03
    48 -.10199151785689E-03
    49 0.17663706272554E-02
    50 0.43296909382129E-03
    51 0.47883407158488E-05
    52 -.19069673842536E-04
    53 0.14281333126687E-04
    54 -.23802979615700E-04
    55 0.83521231325674E-05
    56 -.12809769127432E-04
    57 -.14343322543652E-03
    58 -.56863386500988E-04
    59 0.20029661193751E-03
    60 0.70118181586992E-04
    61 -.10746454123654E-03
    62 0.96062241174997E-04
    63 0.88199941501040E-05
    64 -.16799406860672E-06
    65 -.11355243590079E-04
    66 -.12378776187095E-04
    67 -.12989474709268E-04
    68 0.45344483725369E-05
    69 0.54551229862548E-06
    70 0.13214862403601E-04
    71 0.10700209568555E-04
    72 0.26295087542317E-05
    73 0.14187694827393E-04
    74 -.67234963708550E-04
    75 -.97870840380993E-04
    76 0.29642499066215E-02
    77 -.23843879140461E-02
    78 0.55358587255680E-04
    79 0.13036543621739E-03
    80 -.24781906286363E-04
    81 0.41938804047366E-04
    82 0.19046847181083E-02
    83 -.99723407144807E-03
    84 0.20568875970780E-02
    85 0.11733190263079E-02
    86 -.54229191281233E-03
    87 0.11823352638680E-04
    88 0.28361453491498E-04
    89 -.40184806130178E-04
    90 0.16570999350132E-04
    91 -.38528988513347E-04
    92 -.70245018904280E-04
    93 -.77195825927474E-03
    94 0.55852911431466E-03
    95 0.21342914496008E-03
    96 0.21438332530286E-03
    97 0.13779319182301E-03
    98 -.17240619663819E-03
    99 -.13204007075269E-04
   100 0.24316820499645E-04
   101 -.31719487260760E-05
   102 0.25427330693735E-04
   103 -.51159025605634E-04
   104 0.26942688836632E-04
   105 -.77122962563204E-05
   106 0.18534587425313E-04
   107 -.22687073053042E-04
   108 0.58202977603134E-05
   109 0.48220712489452E-04
   110 -.28694382367668E-03
   111 0.14430554708042E-02
   112 0.25406559556444E-02
   113 -.35926384613123E-02
   114 0.56357649564718E-03
   115 0.26624813367239E-03
   116 -.28296477781843E-03
   117 0.80432632569673E-02
   118 0.53074603396310E-02
   119 -.43210205823285E-02
   120 -.68058380913310E-02
   121 -.61107165784780E-03
   122 0.23436192838946E-02
   123 0.95179300384586E-04
   124 -.34341664566054E-04
   125 -.60837635818532E-04
   126 0.16206931427297E-03
   127 -.13306233239301E-03
   128 -.78282570233673E-04
   129 0.13129975822764E-02
   130 -.10563540235438E-02
   131 -.25664355873260E-03
   132 0.20463601183071E-02
   133 -.15381198234132E-02
   134 -.39428068930191E-03
   135 0.58965753706903E-04
   136 0.53818874612988E-04
   137 0.57292547092775E-04
   138 -.16277974750295E-04
   139 -.83683507103515E-04
   140 -.24423500282797E-04
   141 -.62832885429592E-04
   142 0.11477909839208E-04
   143 -.52442517659334E-04
   144 -.21932539065325E-04
   145 0.43508060904556E+00
   146 0.63949058904374E+00
   147 0.36733553258035E-01
   148 -.31863675703180E-01
   149 0.12452207851137E-01
   150 -.18375786911057E-02
   151 -.10051983390041E-02
   152 0.91429666333844E-03
   153 0.54555601095203E-02
   154 0.31172980366555E-02
   155 -.27695560328395E-02
   156 -.13761371394863E-03
   157 -.78481280048612E-03
   158 0.28255383653145E-03
   159 0.92511674395461E-04
   160 -.60461504832999E-04
   161 -.32050169562463E-04
   162 0.13221669127218E-03
   163 -.10908031610096E-03
   164 -.41448743250653E-04
   165 -.45213671423043E-03
   166 0.24715608249752E-03
   167 0.20498063173290E-03
   168 -.62996567644896E-03
   169 0.54552426375334E-03
   170 0.25922165273216E-03
   171 0.47510623722769E-05
   172 -.22029261778768E-04
   173 0.27876990309131E-04
   174 -.39275738403381E-07
   175 0.32447369664655E-04
   176 -.32455166344237E-04
   177 -.63349433194481E-05
   178 -.28920135657764E-05
   179 -.49457408593548E-05
   180 -.32204600493567E-04
   181 0.25196675507537E-04
   182 0.50750437266109E-04
   183 -.38843758975422E-03
   184 0.21457404979210E-02
   185 0.87748341224382E-04
   186 0.63609246359497E-05
   187 0.35734403718903E-04
   188 -.36450621161569E-04
   189 0.72257635475050E-03
   190 -.53222415997577E-03
   191 0.15248011226985E-03
   192 -.47536268407523E-03
   193 -.27263561297474E-03
   194 0.45835847914182E-04
   195 0.33765041997931E-04
   196 -.17221835596848E-05
   197 -.32042858438246E-04
   198 -.64543904339662E-05
   199 -.17808422089754E-04
   200 -.21155685117739E-04
   201 0.74384048283710E-05
   202 -.34766213007175E-04
   203 0.27327808178804E-04
   204 -.76832117635370E-04
   205 0.41214019262805E-04
   206 0.67775808383399E-04
   207 -.15194330257215E-04
   208 0.15678901072444E-04
   209 -.56124542952723E-05
   210 0.11455016816646E-04
   211 -.19530753402470E-04
   212 0.23462924179772E-04
   213 0.89303163799837E-05
   214 -.15046997638168E-05
   215 -.15933026584868E-04
   216 0.95845654334608E-05
   217 0.71891469404138E-05
   218 -.36758694710356E-04
   219 0.47367382804331E-03
   220 -.92535903144070E-03
   221 -.19188529220146E-02
   222 0.16179192337758E-03
   223 0.27425462932694E-04
   224 -.40144811629317E-04
   225 -.59227988035908E-03
   226 -.93999164708198E-04
   227 0.21820238116214E-03
   228 -.17513725978336E-02
   229 0.93298137076089E-03
   230 -.35449796299921E-03
   231 0.40030541984908E-04
   232 -.16137209019819E-04
   233 -.23893332965089E-04
   234 -.20564229899252E-04
   235 -.45160897049403E-05
   236 -.27872910800661E-05
   237 -.25592693466308E-03
   238 0.13330016544186E-03
   239 0.12262676922121E-03
   240 0.10394645604473E-04
   241 0.42247228699021E-04
   242 0.21552651417315E-04
   243 -.14286664649656E-04
   244 0.17788686637060E-05
   245 -.10521291770387E-04
   246 0.12359812939054E-04
   247 -.60703810415787E-05
   248 0.17711414531428E-04
   249 0.68077590579709E-05
   250 0.36837782885241E-05
   251 -.35956203656117E-05
   252 0.68650390926391E-05
   253 -.54921740752359E-06
   254 0.30446275855076E-05
   255 -.88398097225920E-04
   256 0.71994470542238E-03
   257 -.13898678213948E-02
   258 0.18526978197440E-04
   259 -.30824171048158E-04
   260 -.84175372739148E-05