
   OpenMP run-time library returned nthreads =  4

 rdgrad (DESKTOP-T8QF9C0) : TURBOMOLE V7-8-1 24 Jan 2024 at 10:18:17 compiled  Jan 2024
 Copyright (C) 2024 TURBOMOLE GmbH, Karlsruhe


    2026-03-21 00:37:49.776 



                                 r d g r a d

                          gradient for ridft program 

                        by K.Eichkorn, O.Treutler, H.Oehm, 
                             M.Haeser and R.Ahlrichs
                  (Chemical Physics Letters 242 (1995) 652-660)
                    parallel version: M.v.Arnim  &  R.Ahlrichs
                            quantum chemistry group
                             university  karlsruhe
                                   germany




                          References             
                                                 
          Density Functional:                              
              O. Treutler and R. Ahlrichs                      
              Efficient Molecular Numerical Integration Schemes
              J. Chem. Phys. 102: 346 (1995)                   
          Parallel Version:                                
              Performance of parallel TURBOMOLE for Density    
              Functional Calculations                          
              M. v. Arnim and R. Ahlrichs                      
              J. Comp. Chem. 19: 1746 (1998)                   
          RI-J Method:                                     
              Auxiliary Basis Sets to approximate Coulomb      
              Potentials                                       
              Chem. Phys. Lett. 240: 283 (1995)                
              K. Eichkorn, O. Treutler, H. Oehm, M. Haeser     
              and R. Ahlrichs                                  
              Chem. Phys. Lett. 242: 652 (1995)                
                                                           
              Auxiliary Basis Sets for Main Row Atoms and their
              Use to approximate Coulomb Potentials            
              K. Eichkorn, F. Weigend, O. Treutler and         
              R. Ahlrichs                                      
              Theo. Chem. Acc. 97: 119 (1997)                  
          Relativistic Two-component ECP formalism             
              Efficient two-component self-consistent field    
              procedures and gradients: implementation in      
              TURBOMOLE and application to Au20-               
              A. Baldes and F. Weigend                         
              Mol. Phys. 111: 2617 (2013)                      
          Relativistic all-electron 2c calculations (X2C, DLU) 
              Efficient implementation of one- and two-component
              analytical energy gradients in exact two-component
              theory                                           
              Y. J. Franzke, N. Middendorf and F. Weigend      
              J. Chem. Phys. 148: 104110 (2018)                
          Exploitation of symmetry in scalar X2C response      
              NMR shielding tensors and chemical shifts in     
              scalar-relativistic local exact two-component    
              theory                                           
              Y. J. Franzke and F. Weigend                     
              J. Chem. Theory Comput. 15: 1028 (2019)          
                                                              





          OpenMP Shared-Memory Parallelization:  4 CPUs.

            By: Yannick J. Franzke and Christof Holzer
 

 integral neglect threshold       :  0.93E-11
 integral storage threshold THIZE :  0.10E-04
 integral storage threshold THIME :         5

 Becke-3-Parameter hybrid functional: B3-LYP
 exchange:    0.8*LDA + 0.72*B88 + 0.2*HF
 correlation: 0.19*LDA(VWN) + 0.81*LYP
 A Hybrid-DFT calculation using the RI-J approximation will be carried out.
  
  
 AUXILIARY BASIS SET information:

 symmetry group of the molecule :   c1 

 the group has the following generators :
   c1(z)

    1 symmetry operations found

 there are 1 real representations :   a   

 maximum number of shells which are related by symmetry :  1


    mo occupation :
   irrep   mo's   occupied
    a      315       35
 
 number of basis functions   :   315
 number of occupied orbitals :    35
 

 number of off-diagonal lagrangians expected :  0

 biggest AO integral is expected to be     7.998976882
  
           ------------------
           density functional
           ------------------
 Becke-3-Parameter hybrid functional: B3-LYP
 exchange:    0.8*LDA + 0.72*B88 + 0.2*HF
 correlation: 0.19*LDA(VWN) + 0.81*LYP
 iterations will be done with small grid
  
 spherical integration : Lebedev's spherical grid
 spherical gridsize    :                     3
    i.e. gridpoints    :                   302
  maximum batchsize    :                   100
 value for diffuse not defined
 radial integration    : Chebyshev 2nd kind (scaling 3)
 radial gridsize       :                     3
 integration cells     :                    15
 partition function    : becke
 partition sharpness   :                     3
  
  
           ------------------------
             RDGRAD - INFORMATION
           ------------------------
  
 Threshold for integral neglect (rithr1): 1E-10
 Threshold for integral neglect (rithr2): 1E-10
 Contributions to RI integral batches: 
  neglected integral batches:                  1380
  direct contribution:                         6246
     
 ****************************************
 Memory allocated for RDGRAD: 4 MiB
 ****************************************
                                            
     

 nuclear repulsion energy  :   453.997495790    

  MOs are in ASCII format !


 reading orbital data $scfmo  from file mos
 orbital characterization : scfconv=7
  Deviation of MOs from orthonormality   6.465807446745520E-011

    ----------------------------------------
     S+T+V CONTRIBUTIONS TO ENERGY GRADIENT 
    ----------------------------------------

 1e-integral 1st. derivatives will be neglected if expon. factor < 0.185977E-13


 setting up bound for integral derivative estimation

 increment for numerical differentiation : 0.00050000

 biggest AO integral is expected to be     7.998976882
 biggest cartesian 1st derivative AO integral is expected to be    17.678530758

 biggest 1-particle AO density matrix element is expected to be    0.9422588315

 setting up bound for integral derivative estimation

 increment for numerical differentiation : 0.00050000

 biggest AO integral is expected to be     7.998976882
 biggest cartesian 1st derivative AO integral is expected to be    17.678530758

 2e-integral 1st. derivatives will be neglected if expon. factor < 0.100000E-06
 outer boundary for 2e-integral derivative neglection is 0.187719E-07

          Overall gridpoints after grid construction =         77022

 Integrated ground state density     :   69.99998002461075    


          ------------------------------------------------
           cartesian gradient of the energy (hartree/bohr)
          ------------------------------------------------

  ATOM      1 c           2 c           3 o           4 o           5 o 
dE/dx  0.3018942D-04  0.2630273D-04  0.6485329D-05 -0.1760191D-04 -0.6470503D-05
dE/dy  0.4918425D-04 -0.2297252D-04 -0.4579012D-04  0.5273008D-04 -0.2259582D-04
dE/dz -0.7600813D-05  0.4631984D-04 -0.9866326D-04  0.4067573D-04 -0.3419679D-04

  ATOM      6 c           7 c           8 o           9 o          10 h 
dE/dx  0.7098079D-04 -0.2793266D-03  0.2445339D-03  0.3446283D-04 -0.2292204D-04
dE/dy -0.4193404D-04  0.2814150D-03 -0.3537070D-03  0.3734814D-04  0.6121828D-05
dE/dz -0.3273062D-04  0.5232508D-04 -0.6646103D-04  0.4368185D-04 -0.4322732D-04

  ATOM     11 h          12 h          13 h          14 h          15 h 
dE/dx  0.9436606D-06 -0.1773062D-04  0.4197103D-04 -0.1122291D-04 -0.6807828D-04
dE/dy -0.6203090D-04  0.4311754D-04  0.3802965D-04 -0.2837121D-04  0.1836989D-04
dE/dz  0.3602915D-04  0.1832595D-04 -0.3113424D-04 -0.4835289D-04 -0.8030308D-05
 
 resulting FORCE  (fx,fy,fz) = (0.325D-04,-.511D-04,-.133D-03)
 resulting MOMENT (mx,my,mz) = (0.364D-04,-.761D-04,0.510D-03)


 exx =      -0.000205 eyy =      -0.000663 ezz =       0.000050
 eyz =      -0.000326 exz =       0.000311 exy =       0.000820


 **********************************************************************
  |maximum component of gradient| : 0.35370695E-03  (atom  8 o )       
   gradient norm                  : 0.63976590E-03
 **********************************************************************
   ***  cartesian gradients written onto <gradient>  ***


     --- calculation of the energy gradient finished ---



    ------------------------------------------------------------------------
         total  cpu-time :  32.83 seconds
         total wall-time :   8.81 seconds
    ------------------------------------------------------------------------

   ****  rdgrad : all done  ****


    2026-03-21 00:37:58.573 

 rdgrad ended normally

 statpt (DESKTOP-T8QF9C0) : TURBOMOLE V7-8-1 24 Jan 2024 at 10:18:17 compiled  Jan 2024
 Copyright (C) 2024 TURBOMOLE GmbH, Karlsruhe


    2026-03-21 00:37:58.658 



                           this is S T A T P T   


                     hessian and coordinate update for
                          stationary point search 

                     by barbara unterreiner, marek sierka,
                           and reinhart ahlrichs

                          quantum chemistry group
                          universitaet  karlsruhe
                                  germany




              +--------------------------------------------------+
              | Atomic coordinate, charge and isotop information |
              +--------------------------------------------------+

                    atomic coordinates            atom    charge  isotop
          1.85414367   -1.68019212    1.05628062    c      6.000     0
          3.90880107    0.18492032    0.29476199    c      6.000     0
          3.69090397    1.88385953   -1.19147705    o      8.000     0
          6.07518067   -0.32795365    1.54737550    o      8.000     0
         -0.41645767   -1.36912025   -0.25780190    o      8.000     0
         -1.84623001    0.75730861    0.48098276    c      6.000     0
         -4.42313253    0.81669258   -0.75932192    c      6.000     0
         -5.98688644    2.37349115   -0.20657485    o      8.000     0
         -4.78186011   -0.97620004   -2.51565247    o      8.000     0
          2.54036674   -3.58234259    0.64700625    h      1.000     0
          1.59694095   -1.55062174    3.11381658    h      1.000     0
          7.32704119    0.89982964    1.00894300    h      1.000     0
         -0.89527592    2.52490603   -0.02325069    h      1.000     0
         -2.17043119    0.76934184    2.52977655    h      1.000     0
         -6.47310816   -0.72391931   -3.18259881    h      1.000     0
 
       center of nuclear mass  :   -0.20021596    0.18356295   -0.18624733
       center of nuclear charge:   -0.17808471    0.16403120   -0.14947332
  Keyword $statpt not found - using default options
 
        ***************  Stationary point options ******************
        ************************************************************
           Maximum allowed trust radius:           3.000000E-01
           Minimum allowed trust radius:           1.000000E-03
           Initial trust radius:                   1.500000E-01
           GDIIS used if gradient norm <           1.000000E-02
           Number of previous steps for GDIIS:       5
           Hessian update method:                  BFGS
                        *** Convergence criteria ***                
           Threshold for energy change:            1.000000E-06
           Threshold for max displacement element: 1.000000E-03
           Threshold for max gradient element :    1.000000E-03
           Threshold for RMS of displacement:      5.000000E-04
           Threshold for RMS of gradient:          5.000000E-04
        ************************************************************
 

  Keyword $statp missing in file <control>

  Keyword $statpt not found - using default options
  *************************************************************************
   ATOM                      CARTESIAN COORDINATES
    1 c       1.85414366883046     -1.68019212245054      1.05628061763283
    2 c       3.90880107234238      0.18492032275462      0.29476198995864
    3 o       3.69090396665474      1.88385952844953     -1.19147705122427
    4 o       6.07518066900029     -0.32795364586654      1.54737550396143
    5 o      -0.41645767395378     -1.36912025475145     -0.25780189781827
    6 c      -1.84623001315767      0.75730861291378      0.48098275512936
    7 c      -4.42313252580745      0.81669258439088     -0.75932191757624
    8 o      -5.98688643831476      2.37349114668339     -0.20657484780796
    9 o      -4.78186011291631     -0.97620004269574     -2.51565247063120
   10 h       2.54036673664665     -3.58234259494126      0.64700625482561
   11 h       1.59694095373053     -1.55062174088469      3.11381658098749
   12 h       7.32704118873305      0.89982963933782      1.00894299554563
   13 h      -0.89527592189802      2.52490603395677     -0.02325069144893
   14 h      -2.17043119302836      0.76934183998073      2.52977655451229
   15 h      -6.47310815636725     -0.72391930687156     -3.18259881293664
  *************************************************************************
   ATOM                      CARTESIAN GRADIENTS  
    1 c       0.00003018942451      0.00004918425160     -0.00000760081322
    2 c       0.00002630272996     -0.00002297251688      0.00004631983830
    3 o       0.00000648532856     -0.00004579011501     -0.00009866325944
    4 o      -0.00001760190619      0.00005273008157      0.00004067572684
    5 o      -0.00000647050252     -0.00002259581743     -0.00003419678604
    6 c       0.00007098078977     -0.00004193404207     -0.00003273062093
    7 c      -0.00027932658612      0.00028141500940      0.00005232508220
    8 o       0.00024453387219     -0.00035370695401     -0.00006646102691
    9 o       0.00003446283269      0.00003734813924      0.00004368185355
   10 h      -0.00002292203572      0.00000612182801     -0.00004322732481
   11 h       0.00000094366059     -0.00006203089571      0.00003602914785
   12 h      -0.00001773061764      0.00004311753892      0.00001832594610
   13 h       0.00004197102825      0.00003802964771     -0.00003113424199
   14 h      -0.00001122291174     -0.00002837121417     -0.00004835288825
   15 h      -0.00006807828105      0.00001836989350     -0.00000803030835
  *************************************************************************

  norm of actual CARTESIAN gradient:  6.39766E-04

  ENERGY =    -532.1348184535 a.u.; # of cycle =  105

  Approximate Hessian read from $hessapprox data section

  Hessian updated according to BFGS formula
  Number of zero Hessian eigenvalues:   6
  Number of structures for GDIIS interpolation:    4
  GDIIS step:     0.001844

      ****************************************************************** 
                          CONVERGENCE INFORMATION

                               Converged?     Value      Criterion
             Energy change         yes      0.0000006   0.0000010
             RMS of displacement   yes      0.0002750   0.0005000
             RMS of gradient       yes      0.0000954   0.0005000
             MAX displacement      yes      0.0008558   0.0010000
             MAX gradient          yes      0.0003537   0.0010000
      ****************************************************************** 


    ------------------------------------------------------------------------
         total  cpu-time :   0.06 seconds
         total wall-time :   0.06 seconds
    ------------------------------------------------------------------------

   ****  statpt : all done  ****


    2026-03-21 00:37:58.706 

  statpt ended normally

   OpenMP run-time library returned nthreads =  4

 ridft (DESKTOP-T8QF9C0) : TURBOMOLE V7-8-1 24 Jan 2024 at 10:18:17 compiled  Jan 2024
 Copyright (C) 2024 TURBOMOLE GmbH, Karlsruhe


    2026-03-21 00:37:58.789 



                                  r i d f t

                        DFT program with RI approximation 
                                for coulomb part 





                                 References:     
                                                 
          TURBOMOLE:                             
              R. Ahlrichs, M. Baer, M. Haeser, H. Horn, and
              C. Koelmel
              Electronic structure calculations on workstation
              computers: the program system TURBOMOLE
              Chem. Phys. Lett. 162: 165 (1989)
          Density Functional:                              
              O. Treutler and R. Ahlrichs                      
              Efficient Molecular Numerical Integration Schemes
              J. Chem. Phys. 102: 346 (1995)                   
          Parallel Version:                                
              Performance of parallel TURBOMOLE for Density    
              Functional Calculations                          
              M. v. Arnim and R. Ahlrichs                      
              J. Comp. Chem. 19: 1746 (1998)                   
          RI-J Method:                                     
              Auxiliary Basis Sets to approximate Coulomb      
              Potentials                                       
              Chem. Phys. Lett. 240: 283 (1995)                
              K. Eichkorn, O. Treutler, H. Oehm, M. Haeser     
              and R. Ahlrichs                                  
              Chem. Phys. Lett. 242: 652 (1995)                
                                                           
              Auxiliary Basis Sets for Main Row Atoms and their
              Use to approximate Coulomb Potentials            
              K. Eichkorn, F. Weigend, O. Treutler and         
              R. Ahlrichs                                      
              Theo. Chem. Acc. 97: 119 (1997)                  
                                                           
              Accurate Coulomb-fitting basis sets for H to Rn 
              F. Weigend                                       
              Phys. Chem. Chem. Phys. 8: 1057 (2006)           
                                                           
          Multipole accelerated RI-J (MARI-J):             
              Fast evaluation of the Coulomb potential for     
              electron densities using multipole accelerated   
              resolution of identity approximation             
              M. Sierka, A. Hogekamp and R. Ahlrichs           
              J. Chem. Phys. 118: 9136 (2003)                  
          RI-JK Method:                                     
              A fully direct RI-HF algorithm: Implementation,
              optimised auxiliary basis sets, demonstration of
              accuracy and efficiency                         
              F. Weigend                                      
              Phys. Chem. Chem. Phys. 4: 4285 (2002)           
          Two-component HF and DFT with spin-orbit coupling:  
              Self-consistent treatment of spin-orbit         
              interactions with efficient Hartree-Fock and    
              density functional methods                      
              M. K. Armbruster, F. Weigend, C. van Wüllen and 
              W. Klopper                                      
              Phys. Chem. Chem. Phys. 10: 1748 (2008)         
          Two-component difference density and DIIS algorithm 
              Efficient two-component self-consistent field   
              procedures and gradients: implementation in     
              TURBOMOLE and application to Au20-              
              A. Baldes, F. Weigend                           
              Mol. Phys. 111: 2617 (2013)                     
          Relativistic current density functional theory      
              Current density functional framework for        
              spin-orbit coupling                             
              C. Holzer, Y. J. Franzke, A. Pausch             
              J. Chem. Phys. 157: 204102 (2022)               
          Relativistic all-electron 2c calculations           
              An efficient implementation of two-component    
              relativistic exact-decoupling methods for large 
              molecules                                       
              D. Peng, N. Middendorf, F. Weigend, M. Reiher   
              J. Chem. Phys. 138: 184105 (2013)               
          Finite nucleus model and SNSO approximation         
              Efficient implementation of one- and two-       
              component analytical energy gradients in exact  
              two-component theory                            
              Y. J. Franzke, N. Middendorf, F. Weigend        
              J. Chem. Phys. 148: 104110 (2018)               
          Grids for all-electron relativistic methods         
              Error-consistent segmented contracted all-      
              electron relativistic basis sets of double-     
              and triple-zeta quality for NMR shielding       
              constants                                       
              Y. J. Franzke, R. Tress, T. M. Pazdera,         
              F. Weigend                                      
              Phys. Chem. Chem. Phys. 21: 166658 (2019)       
          Seminumerical exchange algorithms                   
              Seminumerical calculation of the Hartree-Fock   
              exchange matirx: Application to two-component   
              procedures and efficient evaluation of local    
              hybrid functionsl                               
              P. Plessow, F. Weigend,                         
              J. Comput. Chem. 33: 810 (2012)                 
          Improved seminumerical algorithms                   
              C. Holzer,                                      
              J. Chem. Phys. 153 (2020), 184115               






          OpenMP Shared-Memory Parallelization:  4 CPUs.

            By: Christof Holzer and Yannick J. Franzke


              +--------------------------------------------------+
              |      general information about current run       |
              +--------------------------------------------------+

 
 Becke-3-Parameter hybrid functional: B3-LYP
 exchange:    0.8*LDA + 0.72*B88 + 0.2*HF
 correlation: 0.19*LDA(VWN) + 0.81*LYP
 A Hybrid-DFT calculation using the RI-J approximation will be carried out.
 Allocatable memory for RI due to $ricore (MB):                  5000


              +--------------------------------------------------+
              | Atomic coordinate, charge and isotop information |
              +--------------------------------------------------+

                    atomic coordinates            atom    charge  isotop
          1.85398942   -1.68021202    1.05637549    c      6.000     0
          3.90865481    0.18508639    0.29503735    c      6.000     0
          3.69061351    1.88454046   -1.19062129    o      8.000     0
          6.07530547   -0.32839989    1.54701287    o      8.000     0
         -0.41654445   -1.36905100   -0.25771174    o      8.000     0
         -1.84628841    0.75747132    0.48100139    c      6.000     0
         -4.42300923    0.81663454   -0.75934549    c      6.000     0
         -5.98696935    2.37363344   -0.20663636    o      8.000     0
         -4.78150132   -0.97621574   -2.51577815    o      8.000     0
          2.54017769   -3.58222364    0.64680002    h      1.000     0
          1.59673891   -1.55073109    3.11386639    h      1.000     0
          7.32712974    0.89946805    1.00856383    h      1.000     0
         -0.89542513    2.52487464   -0.02374876    h      1.000     0
         -2.16999345    0.76960687    2.52987127    h      1.000     0
         -6.47288201   -0.72448233   -3.18242126    h      1.000     0
 
       center of nuclear mass  :   -0.20023267    0.18363167   -0.18617307
       center of nuclear charge:   -0.17809920    0.16409217   -0.14940762

              +--------------------------------------------------+
              |               basis set information              |
              +--------------------------------------------------+

              we will work with the 1s 3p 5d 7f 9g ... basis set
              ...i.e. with spherical basis functions...

   type   atoms  prim   cont   basis
   ---------------------------------------------------------------------------
    c        4     46     31   def2-TZVP   [5s3p2d1f|11s6p2d1f]
    o        5     46     31   def2-TZVP   [5s3p2d1f|11s6p2d1f]
    h        6      8      6   def2-TZVP   [3s1p|5s1p]
   ---------------------------------------------------------------------------
   total:   15    462    315
   ---------------------------------------------------------------------------

   total number of primitive shells          :   46
   total number of contracted shells         :  123
   total number of cartesian basis functions :  360
   total number of SCF-basis functions       :  315


 integral neglect threshold       :  0.93E-11
 integral storage threshold THIZE :  0.10E-04
 integral storage threshold THIME :         5

 RI-J AUXILIARY BASIS SET information:

              we will work with the 1s 3p 5d 7f 9g ... basis set
              ...i.e. with spherical basis functions...

   type   atoms  prim   cont   basis
   ---------------------------------------------------------------------------
    c        4     70     49   def2-TZVP   [6s4p3d1f1g|12s5p4d2f1g]
    o        5     70     49   def2-TZVP   [6s4p3d1f1g|12s5p4d2f1g]
    h        6     16     11   def2-TZVP   [3s1p1d|5s2p1d]
   ---------------------------------------------------------------------------
   total:   15    726    507
   ---------------------------------------------------------------------------

   total number of primitive shells          :   56
   total number of contracted shells         :  165
   total number of cartesian basis functions :  621
   total number of SCF-basis functions       :  507


 symmetry group of the molecule :   c1 

 the group has the following generators :
   c1(z)

    1 symmetry operations found

 there are 1 real representations :   a   

 maximum number of shells which are related by symmetry :  1

  
           ------------------
           density functional
           ------------------
 Becke-3-Parameter hybrid functional: B3-LYP
 exchange:    0.8*LDA + 0.72*B88 + 0.2*HF
 correlation: 0.19*LDA(VWN) + 0.81*LYP
 iterations will be done with small grid
  
 spherical integration : Lebedev's spherical grid
 spherical gridsize    :                     3
    i.e. gridpoints    :                   302
  maximum batchsize    :                   100
 value for diffuse not defined
 radial integration    : Chebyshev 2nd kind (scaling 3)
 radial gridsize       :                     3
 integration cells     :                    15
 partition function    : becke
 partition sharpness   :                     3
  

 biggest AO integral is expected to be     7.998976882

          ------------------------
          nuclear repulsion energy  :   453.997545594    
          ------------------------


         -----------------
         -S,T+V- integrals
         -----------------

 1e-integrals will be neglected if expon. factor < 0.928323E-12
 
 Difference densities algorithm switched on.
 The maximal number of linear combinations of
 difference densities is  20.

 DIIS switched on: error vector is FDS-SDF
 Max. Iterations for DIIS is     :   4
 DIIS matrix (see manual) 
    Scaling factor of diagonals  :  1.200
    threshold for scaling factor :  0.000

 scf convergence criterion : increment of total energy < .1000000D-06
                  and increment of one-electron energy < .1000000D-03

 MOs are in ASCII format !


    mo occupation :
   irrep   mo's   occupied
    a      315       35
 
 number of basis functions   :   315
 number of occupied orbitals :    35
 

 reading orbital data $scfmo  from file mos
 orbital characterization : scfconv=7
 mo-orthogonalization by Cholesky decomposition

 automatic virtual orbital shift switched on 
      shift if e(lumo)-e(homo) < 0.10000000    

  
           ------------------------
               RI-J - INFORMATION
           ------------------------
 Contributions to RI integral batches: 
  neglected integral batches:                  1380
  direct contribution:                            0
  memory contribution:                  6246
 Memory core needed for (P|Q) and Cholesky      2 MByte
 Memory core minimum needed except of (P|Q)     1 MByte
 Total minimum memory core needed (sum)         3 MByte
  
 ****************************************
 Memory allocated for RI-J   253 MByte
 ****************************************
                                            

 DSCF restart information will be dumped onto file mos


 Starting SCF iterations

          Overall gridpoints after grid construction =         21093

 ITERATION  ENERGY          1e-ENERGY        2e-ENERGY     NORM[dD(SAO)]  TOL
   1  -532.13483600348    -1629.2289318     643.09655016    0.000D+00 0.926D-11
                            Exc = -53.9126991664     Coul =  709.814029547    
                            exK = -12.8047802181    
                              N = 70.000269299    
                            current damping = 0.300
 
          max. resid. norm for Fia-block=  1.457D-04 for orbital     31a         
          max. resid. fock norm         =  2.008D-03 for orbital    314a         

 ITERATION  ENERGY          1e-ENERGY        2e-ENERGY     NORM[dD(SAO)]  TOL
   2  -532.13483618521    -1629.2287092     643.09632742    0.538D-03 0.587D-11
                            Exc = -53.9126838749      Eck =  697.009011296    
                              N = 70.000269359    
                            current damping = 0.250
 
          Norm of current diis error: 0.44292E-03
          max. resid. norm for Fia-block=  4.113D-05 for orbital     31a         
          max. resid. fock norm         =  4.710D-04 for orbital    314a         

 ENERGY CONVERGED !

          Overall gridpoints after grid construction =         77022

 ITERATION  ENERGY          1e-ENERGY        2e-ENERGY     NORM[dD(SAO)]  TOL
   3  -532.13481871186    -1629.2286516     643.09628727    0.184D-03 0.478D-11
                            Exc = -53.9126771116      Eck =  697.008964380    
                              N = 69.999979969    
                            current damping = 0.100
 
          Norm of current diis error: 0.44258E-03
          max. resid. norm for Fia-block=  1.728D-05 for orbital     32a         
          max. resid. fock norm         =  9.498D-05 for orbital    314a         

 End of SCF iterations

   convergence criteria satisfied after     3 iterations


                  ------------------------------------------ 
                 |  total energy      =   -532.13481871186  |
                  ------------------------------------------ 
                 :  kinetic energy    =    530.08003011604  :
                 :  potential energy  =  -1062.21484882790  :
                 :  virial theorem    =      1.99613859397  :
                 :  wavefunction norm =      1.00000000000  :
                  .......................................... 


 orbitals $scfmo  will be written to file mos

    irrep                 31a         32a         33a         34a         35a   
 eigenvalues H         -0.34677    -0.33488    -0.31381    -0.29239    -0.28058
            eV          -9.4361     -9.1127     -8.5392     -7.9564     -7.6351
 occupation              2.0000      2.0000      2.0000      2.0000      2.0000

    irrep                 36a         37a         38a         39a         40a   
 eigenvalues H         -0.01484    -0.00290     0.01829     0.02639     0.04474
            eV          -0.4038     -0.0788      0.4976      0.7180      1.2174
 
 
 
 
 ==============================================================================
                           electrostatic moments
 ==============================================================================

 reference point for electrostatic moments:    0.00000   0.00000   0.00000

 
              nuc           elec       ->  total
 ------------------------------------------------------------------------------
                          charge      
 ------------------------------------------------------------------------------
          70.000000     -70.000000      -0.000000
 
 ------------------------------------------------------------------------------
                       dipole moment  
 ------------------------------------------------------------------------------
   x     -12.466944      13.215092       0.748148
   y      11.486452     -12.083918      -0.597465
   z     -10.458533      10.946000       0.487467
 
   | dipole moment | =     1.0744 a.u. =     2.7308 debye 
 
 ------------------------------------------------------------------------------
                     quadrupole moment
 ------------------------------------------------------------------------------
  xx    1235.497918   -1269.946841     -34.448923
  yy     145.092624    -186.232375     -41.139751
  zz     121.718650    -159.134015     -37.415365
  xy     -80.742101      84.800207       4.058106
  xz     209.654178    -205.409550       4.244629
  yz     -17.370704      18.000756       0.630052
 
     1/3  trace=     -37.668013
     anisotropy=      11.762873
 
 ==============================================================================
 
HOMO-LUMO Separation
 HOMO         :   -0.28058257 H =     -7.63504 eV
 LUMO         :   -0.01483954 H =     -0.40380 eV
 HOMO-LUMO gap:    0.26574303 H =     +7.23124 eV
 
 ==============================================================================


    ------------------------------------------------------------------------
         total  cpu-time :  33.50 seconds
         total wall-time :   9.65 seconds
    ------------------------------------------------------------------------

   ****  ridft : all done  ****


    2026-03-21 00:38:08.427 

 ridft ended normally
