[Molden Format]
[Title]
                                                                                
[Atoms] AU
 c     1    6 0.18539894179935E+01 -.16802120172960E+01 0.10563754941914E+01
 c     2    6 0.39086548135824E+01 0.18508639338066E+00 0.29503734664571E+00
 o     3    8 0.36906135139691E+01 0.18845404590599E+01 -.11906212887227E+01
 o     4    8 0.60753054684439E+01 -.32839989414649E+00 0.15470128693596E+01
 o     5    8 -.41654444792163E+00 -.13690510025589E+01 -.25771173545553E+00
 c     6    6 -.18462884109337E+01 0.75747132341325E+00 0.48100138761159E+00
 c     7    6 -.44230092268040E+01 0.81663453615635E+00 -.75934549115426E+00
 o     8    8 -.59869693467461E+01 0.23736334386276E+01 -.20663635574123E+00
 o     9    8 -.47815013178886E+01 -.97621573641797E+00 -.25157781494284E+01
 h    10    1 0.25401776853555E+01 -.35822236422842E+01 0.64680002466227E+00
 h    11    1 0.15967389131004E+01 -.15507310884768E+01 0.31138663880740E+01
 h    12    1 0.73271297428504E+01 0.89946804801300E+00 0.10085638264468E+01
 h    13    1 -.89542513096424E+00 0.25248746373026E+01 -.23748761778620E-01
 h    14    1 -.21699934451892E+01 0.76960687305972E+00 0.25298712688257E+01
 h    15    1 -.64728820083532E+01 -.72448232782689E+00 -.31824212604265E+01
[GTO]
    1 0
 s    6 1.00
 0.13575349682000E+05 0.60645503603591E-03
 0.20352333680000E+04 0.46979088884982E-02
 0.46322562359000E+03 0.24332477647552E-01
 0.13120019598000E+03 0.97399968307759E-01
 0.42853015891000E+02 0.30195584253780E+00
 0.15584185766000E+02 0.66233609137875E+00
 s    2 1.00
 0.62067138508000E+01 0.65595308539952E+00
 0.25764896527000E+01 0.37585633285142E+00
 s    1 1.00
 0.57696339419000E+00 0.10000000000000E+01
 s    1 1.00
 0.22972831358000E+00 0.10000000000000E+01
 s    1 1.00
 0.95164440028000E-01 0.10000000000000E+01
 p    4 1.00
 0.34697232244000E+02 0.11327220003114E-01
 0.79582622826000E+01 0.76169659202087E-01
 0.23780826883000E+01 0.30192252202676E+00
 0.81433208183000E+00 0.72785027349547E+00
 p    1 1.00
 0.28887547253000E+00 0.10000000000000E+01
 p    1 1.00
 0.10056823671000E+00 0.10000000000000E+01
 d    1 1.00
 0.10970000000000E+01 0.10000000000000E+01
 d    1 1.00
 0.31800000000000E+00 0.10000000000000E+01
 f    1 1.00
 0.76100000000000E+00 0.10000000000000E+01
 
    2 0
 s    6 1.00
 0.13575349682000E+05 0.60645503603591E-03
 0.20352333680000E+04 0.46979088884982E-02
 0.46322562359000E+03 0.24332477647552E-01
 0.13120019598000E+03 0.97399968307759E-01
 0.42853015891000E+02 0.30195584253780E+00
 0.15584185766000E+02 0.66233609137875E+00
 s    2 1.00
 0.62067138508000E+01 0.65595308539952E+00
 0.25764896527000E+01 0.37585633285142E+00
 s    1 1.00
 0.57696339419000E+00 0.10000000000000E+01
 s    1 1.00
 0.22972831358000E+00 0.10000000000000E+01
 s    1 1.00
 0.95164440028000E-01 0.10000000000000E+01
 p    4 1.00
 0.34697232244000E+02 0.11327220003114E-01
 0.79582622826000E+01 0.76169659202087E-01
 0.23780826883000E+01 0.30192252202676E+00
 0.81433208183000E+00 0.72785027349547E+00
 p    1 1.00
 0.28887547253000E+00 0.10000000000000E+01
 p    1 1.00
 0.10056823671000E+00 0.10000000000000E+01
 d    1 1.00
 0.10970000000000E+01 0.10000000000000E+01
 d    1 1.00
 0.31800000000000E+00 0.10000000000000E+01
 f    1 1.00
 0.76100000000000E+00 0.10000000000000E+01
 
    3 0
 s    6 1.00
 0.27032382631000E+05 0.57227335211155E-03
 0.40523871392000E+04 0.44353233492995E-02
 0.92232722710000E+03 0.23020107706038E-01
 0.26124070989000E+03 0.92822490667928E-01
 0.85354641351000E+02 0.29378500009671E+00
 0.31035035245000E+02 0.67401604501641E+00
 s    2 1.00
 0.12260860728000E+02 0.63839937025506E+00
 0.49987076005000E+01 0.39534587125718E+00
 s    1 1.00
 0.11703108158000E+01 0.10000000000000E+01
 s    1 1.00
 0.46474740994000E+00 0.10000000000000E+01
 s    1 1.00
 0.18504536357000E+00 0.10000000000000E+01
 p    4 1.00
 0.63274954801000E+02 0.12018332222616E-01
 0.14627049379000E+02 0.83005421790056E-01
 0.44501223456000E+01 0.31991743925964E+00
 0.15275799647000E+01 0.70715542916104E+00
 p    1 1.00
 0.52935117943000E+00 0.10000000000000E+01
 p    1 1.00
 0.17478421270000E+00 0.10000000000000E+01
 d    1 1.00
 0.23140000000000E+01 0.10000000000000E+01
 d    1 1.00
 0.64500000000000E+00 0.10000000000000E+01
 f    1 1.00
 0.14280000000000E+01 0.10000000000000E+01
 
    4 0
 s    6 1.00
 0.27032382631000E+05 0.57227335211155E-03
 0.40523871392000E+04 0.44353233492995E-02
 0.92232722710000E+03 0.23020107706038E-01
 0.26124070989000E+03 0.92822490667928E-01
 0.85354641351000E+02 0.29378500009671E+00
 0.31035035245000E+02 0.67401604501641E+00
 s    2 1.00
 0.12260860728000E+02 0.63839937025506E+00
 0.49987076005000E+01 0.39534587125718E+00
 s    1 1.00
 0.11703108158000E+01 0.10000000000000E+01
 s    1 1.00
 0.46474740994000E+00 0.10000000000000E+01
 s    1 1.00
 0.18504536357000E+00 0.10000000000000E+01
 p    4 1.00
 0.63274954801000E+02 0.12018332222616E-01
 0.14627049379000E+02 0.83005421790056E-01
 0.44501223456000E+01 0.31991743925964E+00
 0.15275799647000E+01 0.70715542916104E+00
 p    1 1.00
 0.52935117943000E+00 0.10000000000000E+01
 p    1 1.00
 0.17478421270000E+00 0.10000000000000E+01
 d    1 1.00
 0.23140000000000E+01 0.10000000000000E+01
 d    1 1.00
 0.64500000000000E+00 0.10000000000000E+01
 f    1 1.00
 0.14280000000000E+01 0.10000000000000E+01
 
    5 0
 s    6 1.00
 0.27032382631000E+05 0.57227335211155E-03
 0.40523871392000E+04 0.44353233492995E-02
 0.92232722710000E+03 0.23020107706038E-01
 0.26124070989000E+03 0.92822490667928E-01
 0.85354641351000E+02 0.29378500009671E+00
 0.31035035245000E+02 0.67401604501641E+00
 s    2 1.00
 0.12260860728000E+02 0.63839937025506E+00
 0.49987076005000E+01 0.39534587125718E+00
 s    1 1.00
 0.11703108158000E+01 0.10000000000000E+01
 s    1 1.00
 0.46474740994000E+00 0.10000000000000E+01
 s    1 1.00
 0.18504536357000E+00 0.10000000000000E+01
 p    4 1.00
 0.63274954801000E+02 0.12018332222616E-01
 0.14627049379000E+02 0.83005421790056E-01
 0.44501223456000E+01 0.31991743925964E+00
 0.15275799647000E+01 0.70715542916104E+00
 p    1 1.00
 0.52935117943000E+00 0.10000000000000E+01
 p    1 1.00
 0.17478421270000E+00 0.10000000000000E+01
 d    1 1.00
 0.23140000000000E+01 0.10000000000000E+01
 d    1 1.00
 0.64500000000000E+00 0.10000000000000E+01
 f    1 1.00
 0.14280000000000E+01 0.10000000000000E+01
 
    6 0
 s    6 1.00
 0.13575349682000E+05 0.60645503603591E-03
 0.20352333680000E+04 0.46979088884982E-02
 0.46322562359000E+03 0.24332477647552E-01
 0.13120019598000E+03 0.97399968307759E-01
 0.42853015891000E+02 0.30195584253780E+00
 0.15584185766000E+02 0.66233609137875E+00
 s    2 1.00
 0.62067138508000E+01 0.65595308539952E+00
 0.25764896527000E+01 0.37585633285142E+00
 s    1 1.00
 0.57696339419000E+00 0.10000000000000E+01
 s    1 1.00
 0.22972831358000E+00 0.10000000000000E+01
 s    1 1.00
 0.95164440028000E-01 0.10000000000000E+01
 p    4 1.00
 0.34697232244000E+02 0.11327220003114E-01
 0.79582622826000E+01 0.76169659202087E-01
 0.23780826883000E+01 0.30192252202676E+00
 0.81433208183000E+00 0.72785027349547E+00
 p    1 1.00
 0.28887547253000E+00 0.10000000000000E+01
 p    1 1.00
 0.10056823671000E+00 0.10000000000000E+01
 d    1 1.00
 0.10970000000000E+01 0.10000000000000E+01
 d    1 1.00
 0.31800000000000E+00 0.10000000000000E+01
 f    1 1.00
 0.76100000000000E+00 0.10000000000000E+01
 
    7 0
 s    6 1.00
 0.13575349682000E+05 0.60645503603591E-03
 0.20352333680000E+04 0.46979088884982E-02
 0.46322562359000E+03 0.24332477647552E-01
 0.13120019598000E+03 0.97399968307759E-01
 0.42853015891000E+02 0.30195584253780E+00
 0.15584185766000E+02 0.66233609137875E+00
 s    2 1.00
 0.62067138508000E+01 0.65595308539952E+00
 0.25764896527000E+01 0.37585633285142E+00
 s    1 1.00
 0.57696339419000E+00 0.10000000000000E+01
 s    1 1.00
 0.22972831358000E+00 0.10000000000000E+01
 s    1 1.00
 0.95164440028000E-01 0.10000000000000E+01
 p    4 1.00
 0.34697232244000E+02 0.11327220003114E-01
 0.79582622826000E+01 0.76169659202087E-01
 0.23780826883000E+01 0.30192252202676E+00
 0.81433208183000E+00 0.72785027349547E+00
 p    1 1.00
 0.28887547253000E+00 0.10000000000000E+01
 p    1 1.00
 0.10056823671000E+00 0.10000000000000E+01
 d    1 1.00
 0.10970000000000E+01 0.10000000000000E+01
 d    1 1.00
 0.31800000000000E+00 0.10000000000000E+01
 f    1 1.00
 0.76100000000000E+00 0.10000000000000E+01
 
    8 0
 s    6 1.00
 0.27032382631000E+05 0.57227335211155E-03
 0.40523871392000E+04 0.44353233492995E-02
 0.92232722710000E+03 0.23020107706038E-01
 0.26124070989000E+03 0.92822490667928E-01
 0.85354641351000E+02 0.29378500009671E+00
 0.31035035245000E+02 0.67401604501641E+00
 s    2 1.00
 0.12260860728000E+02 0.63839937025506E+00
 0.49987076005000E+01 0.39534587125718E+00
 s    1 1.00
 0.11703108158000E+01 0.10000000000000E+01
 s    1 1.00
 0.46474740994000E+00 0.10000000000000E+01
 s    1 1.00
 0.18504536357000E+00 0.10000000000000E+01
 p    4 1.00
 0.63274954801000E+02 0.12018332222616E-01
 0.14627049379000E+02 0.83005421790056E-01
 0.44501223456000E+01 0.31991743925964E+00
 0.15275799647000E+01 0.70715542916104E+00
 p    1 1.00
 0.52935117943000E+00 0.10000000000000E+01
 p    1 1.00
 0.17478421270000E+00 0.10000000000000E+01
 d    1 1.00
 0.23140000000000E+01 0.10000000000000E+01
 d    1 1.00
 0.64500000000000E+00 0.10000000000000E+01
 f    1 1.00
 0.14280000000000E+01 0.10000000000000E+01
 
    9 0
 s    6 1.00
 0.27032382631000E+05 0.57227335211155E-03
 0.40523871392000E+04 0.44353233492995E-02
 0.92232722710000E+03 0.23020107706038E-01
 0.26124070989000E+03 0.92822490667928E-01
 0.85354641351000E+02 0.29378500009671E+00
 0.31035035245000E+02 0.67401604501641E+00
 s    2 1.00
 0.12260860728000E+02 0.63839937025506E+00
 0.49987076005000E+01 0.39534587125718E+00
 s    1 1.00
 0.11703108158000E+01 0.10000000000000E+01
 s    1 1.00
 0.46474740994000E+00 0.10000000000000E+01
 s    1 1.00
 0.18504536357000E+00 0.10000000000000E+01
 p    4 1.00
 0.63274954801000E+02 0.12018332222616E-01
 0.14627049379000E+02 0.83005421790056E-01
 0.44501223456000E+01 0.31991743925964E+00
 0.15275799647000E+01 0.70715542916104E+00
 p    1 1.00
 0.52935117943000E+00 0.10000000000000E+01
 p    1 1.00
 0.17478421270000E+00 0.10000000000000E+01
 d    1 1.00
 0.23140000000000E+01 0.10000000000000E+01
 d    1 1.00
 0.64500000000000E+00 0.10000000000000E+01
 f    1 1.00
 0.14280000000000E+01 0.10000000000000E+01
 
   10 0
 s    3 1.00
 0.34061341000000E+02 0.25439307208879E-01
 0.51235746000000E+01 0.19008594890375E+00
 0.11646626000000E+01 0.85244113011042E+00
 s    1 1.00
 0.32723041000000E+00 0.10000000000000E+01
 s    1 1.00
 0.10307241000000E+00 0.10000000000000E+01
 p    1 1.00
 0.80000000000000E+00 0.10000000000000E+01
 
   11 0
 s    3 1.00
 0.34061341000000E+02 0.25439307208879E-01
 0.51235746000000E+01 0.19008594890375E+00
 0.11646626000000E+01 0.85244113011042E+00
 s    1 1.00
 0.32723041000000E+00 0.10000000000000E+01
 s    1 1.00
 0.10307241000000E+00 0.10000000000000E+01
 p    1 1.00
 0.80000000000000E+00 0.10000000000000E+01
 
   12 0
 s    3 1.00
 0.34061341000000E+02 0.25439307208879E-01
 0.51235746000000E+01 0.19008594890375E+00
 0.11646626000000E+01 0.85244113011042E+00
 s    1 1.00
 0.32723041000000E+00 0.10000000000000E+01
 s    1 1.00
 0.10307241000000E+00 0.10000000000000E+01
 p    1 1.00
 0.80000000000000E+00 0.10000000000000E+01
 
   13 0
 s    3 1.00
 0.34061341000000E+02 0.25439307208879E-01
 0.51235746000000E+01 0.19008594890375E+00
 0.11646626000000E+01 0.85244113011042E+00
 s    1 1.00
 0.32723041000000E+00 0.10000000000000E+01
 s    1 1.00
 0.10307241000000E+00 0.10000000000000E+01
 p    1 1.00
 0.80000000000000E+00 0.10000000000000E+01
 
   14 0
 s    3 1.00
 0.34061341000000E+02 0.25439307208879E-01
 0.51235746000000E+01 0.19008594890375E+00
 0.11646626000000E+01 0.85244113011042E+00
 s    1 1.00
 0.32723041000000E+00 0.10000000000000E+01
 s    1 1.00
 0.10307241000000E+00 0.10000000000000E+01
 p    1 1.00
 0.80000000000000E+00 0.10000000000000E+01
 
   15 0
 s    3 1.00
 0.34061341000000E+02 0.25439307208879E-01
 0.51235746000000E+01 0.19008594890375E+00
 0.11646626000000E+01 0.85244113011042E+00
 s    1 1.00
 0.32723041000000E+00 0.10000000000000E+01
 s    1 1.00
 0.10307241000000E+00 0.10000000000000E+01
 p    1 1.00
 0.80000000000000E+00 0.10000000000000E+01
 
[MO]
 Sym=     1a   
 Ene= -.19191500914319E+02
 Spin= Alpha
 Occup= 2.000000
     1 0.86705067289155E-05
     2 -.41094564185170E-04
     3 -.20594762830807E-03
     4 0.42910352454688E-02
     5 -.18950235427297E-02
     6 0.50494624588011E-04
     7 0.54773688883196E-04
     8 -.20472273020090E-04
     9 0.16341897754998E-02
    10 0.12394465035520E-02
    11 -.35059403669841E-03
    12 0.96804483610296E-03
    13 0.74231755663716E-03
    14 0.70855718383391E-03
    15 0.19648856423708E-04
    16 -.21398570857980E-05
    17 -.17508999337910E-04
    18 0.24400270115887E-04
    19 0.20331520623198E-04
    20 -.34243864603541E-04
    21 -.19134334982311E-03
    22 0.25398508243188E-03
    23 -.62641732608779E-04
    24 0.41903430242158E-03
    25 -.56887240173488E-03
    26 0.42705974834023E-04
    27 -.43774223103188E-04
    28 0.71588560704798E-05
    29 0.24792719428952E-04
    30 0.40757444496584E-04
    31 -.31619652429068E-06
    32 -.17088820188439E-04
    33 0.17971838615999E-04
    34 -.92884167645473E-05
    35 -.16174103405691E-04
    36 -.40745287594670E-04
    37 0.41913118876677E-04
    38 -.22694147274467E-03
    39 -.33218080662614E-03
    40 0.24472138943992E-02
    41 -.29986258407856E-02
    42 -.23935544962785E-04
    43 -.46999785615430E-04
    44 0.50557332246557E-04
    45 0.68318020903673E-02
    46 -.33042496977279E-03
    47 0.27881932693286E-02
    48 -.44499304331405E-02
    49 0.22390338163762E-02
    50 -.37312268417393E-02
    51 0.18989193694034E-03
    52 -.13164863012428E-03
    53 -.58243306816061E-04
    54 -.56182188956920E-04
    55 0.20929660466688E-03
    56 -.64433740605823E-04
    57 0.11973145050158E-02
    58 -.11950084457373E-02
    59 -.23060592785644E-05
    60 -.13536775867017E-02
    61 0.19203139651565E-02
    62 -.23784488718183E-05
    63 0.79231135770996E-04
    64 0.18675032920495E-04
    65 -.96965451423446E-04
    66 -.79488671850551E-04
    67 0.38397714003269E-04
    68 0.12247641087750E-03
    69 -.26811051460527E-04
    70 -.63452899858633E-04
    71 0.76163936335676E-05
    72 -.61463024179070E-04
    73 -.43319247634621E-04
    74 -.44021571371206E-04
    75 -.29155325751592E-03
    76 0.20358260986902E-02
    77 -.30747898417793E-02
    78 -.22844104675957E-04
    79 -.72173643043594E-04
    80 0.69576412217993E-04
    81 0.47922048625338E-03
    82 -.29002986143089E-04
    83 0.13570936193176E-03
    84 0.95578762868192E-03
    85 0.46845403161302E-03
    86 0.18823471746193E-03
    87 0.20190312772818E-04
    88 0.19926359909933E-05
    89 -.22182948763812E-04
    90 0.24201654242080E-04
    91 0.14585321937669E-04
    92 -.38507454357659E-04
    93 -.77087895944212E-04
    94 -.24847428965573E-04
    95 0.10193532490979E-03
    96 -.15627694868682E-03
    97 0.14559981014470E-04
    98 0.10814214711922E-03
    99 -.49088703397052E-05
   100 -.59524835264078E-05
   101 0.13008176841523E-04
   102 0.97367768198356E-05
   103 0.24680070652428E-05
   104 -.11544794631714E-04
   105 -.31508361564475E-05
   106 0.55180876147545E-05
   107 -.59075059768762E-05
   108 0.52768941705706E-05
   109 0.43508552678460E+00
   110 0.63950854926733E+00
   111 0.36532350641179E-01
   112 -.29560067451156E-01
   113 0.12251053817038E-01
   114 -.67295436078943E-03
   115 0.12432217769321E-02
   116 -.12883048138574E-02
   117 0.34259572328004E-02
   118 -.23994994007271E-02
   119 0.33117336057653E-02
   120 -.84430272806490E-03
   121 0.27324928633064E-03
   122 -.54223243821439E-03
   123 0.96301604129686E-04
   124 -.47640846250344E-04
   125 -.48660757879343E-04
   126 0.27533029241318E-04
   127 0.69163815860919E-04
   128 -.50283963079305E-04
   129 -.58188567239450E-03
   130 0.31497071292890E-03
   131 0.26691495946559E-03
   132 -.70431494897155E-04
   133 -.48728521541586E-03
   134 0.29471335312032E-03
   135 0.20049273176634E-04
   136 0.32318911002629E-04
   137 -.43919526673462E-04
   138 -.52488479550683E-04
   139 -.55085700576466E-04
   140 0.60067663474151E-04
   141 0.25589556917234E-04
   142 0.11725331400080E-04
   143 -.11434351652655E-05
   144 0.63233535563306E-05
   145 -.25069982992249E-04
   146 -.13609452283694E-04
   147 -.22038332503863E-03
   148 0.11409954197711E-02
   149 -.13498852191402E-02
   150 -.49263401640217E-04
   151 -.86233069759991E-05
   152 0.19118050389571E-04
   153 0.53940608572813E-03
   154 -.50359326483693E-05
   155 0.19302250622538E-04
   156 -.68894306756336E-03
   157 -.11385810738070E-02
   158 -.11656296157250E-03
   159 0.11799970612465E-04
   160 0.52535338292139E-05
   161 -.17053504441679E-04
   162 0.40429876173708E-05
   163 0.39720177000446E-05
   164 0.16540759713086E-05
   165 -.10583339550445E-04
   166 -.44430896540283E-04
   167 0.55014236090728E-04
   168 0.28702821380499E-04
   169 -.17340992494641E-05
   170 -.32760334937504E-05
   171 0.15308542922182E-05
   172 -.53753967516653E-05
   173 -.44423553760307E-06
   174 0.38723530206144E-05
   175 0.30033516972645E-05
   176 -.19030974150904E-05
   177 -.59262095772427E-05
   178 0.42084998283886E-05
   179 0.24991019311514E-05
   180 0.82894169990460E-05
   181 0.62871382460631E-06
   182 -.26874074147756E-05
   183 -.27443255970426E-04
   184 0.23959760212642E-03
   185 0.49292660866496E-03
   186 -.66953693096571E-04
   187 0.43455624282920E-04
   188 0.27836852798793E-05
   189 0.10352682142506E-02
   190 -.44494818336158E-03
   191 0.26701980299306E-03
   192 -.45100075024350E-03
   193 0.58464810937216E-04
   194 -.44148069403592E-04
   195 0.24478871193078E-04
   196 -.32820170247801E-05
   197 -.21196854168298E-04
   198 0.12932606915210E-04
   199 0.19311686913378E-05
   200 0.96164651873491E-05
   201 -.23443291853561E-03
   202 0.75633323370371E-04
   203 0.15879959516524E-03
   204 -.16326192948243E-03
   205 -.17980924558046E-03
   206 0.23592188731962E-04
   207 0.75305672218340E-05
   208 -.97284232669984E-06
   209 0.55670321117922E-05
   210 -.46106823588740E-05
   211 -.75246300310825E-06
   212 0.52142239846981E-05
   213 -.54926337714176E-05
   214 0.20576679474422E-05
   215 -.12683181325633E-04
   216 0.55807873189309E-05
   217 0.14718922200828E-05
   218 -.69383989500021E-05
   219 -.79496530177484E-04
   220 0.83012026531307E-03
   221 -.30892405072174E-03
   222 -.73604695513377E-05
   223 0.51776432280831E-05
   224 -.13826118289074E-04
   225 0.57112963185899E-03
   226 -.51831684086397E-04
   227 0.39899883306682E-03
   228 -.50089328953901E-04
   229 0.15012682573721E-03
   230 -.82959518994054E-04
   231 0.25224703752286E-05
   232 -.49303343490499E-05
   233 0.24078639738212E-05
   234 -.46987947931095E-05
   235 0.85160852878384E-05
   236 -.65066815604939E-06
   237 0.12758919049295E-03
   238 -.87802879862131E-04
   239 -.39786310630818E-04
   240 -.15073072536891E-04
   241 0.12273956237673E-03
   242 -.41653486893322E-04
   243 -.20157583921897E-05
   244 0.12154410293530E-06
   245 -.59638307299316E-05
   246 -.25730296130450E-05
   247 -.28081501669356E-05
   248 0.11364693444100E-04
   249 0.52774532877360E-05
   250 0.26450816410791E-05
   251 -.33633748930425E-05
   252 -.79022038769626E-06
   253 -.25019031274828E-05
   254 -.15018378443643E-07
   255 -.29146039175200E-04
   256 0.13560143693003E-03
   257 -.24298509017179E-03
   258 -.28458886446004E-05
   259 -.52988508195353E-05
   260 -.11841199367974E-05
   261 0.29871678266118E-04
   262 0.21954249273745E-04
   263 0.11378667607060E-04
   264 -.86295122584237E-04
   265 0.17521146886690E-04
   266 0.11480293953218E-04
   267 0.96928654163216E-07
   268 -.60960187934166E-06
   269 0.51267322517845E-06
   270 -.13516061101118E-05
   271 0.28125667242354E-05
   272 0.17596660205432E-05
   273 0.28307466759509E-05
   274 -.32400314088501E-05
   275 0.40928473289925E-06
   276 0.56448181942223E-05
   277 -.95489778312264E-05
   278 -.83889354160630E-05
   279 0.91432642286673E-07
   280 0.70480564894539E-06
   281 -.17201857042382E-06
   282 -.54406569107969E-06
   283 -.16165719446657E-06
   284 -.40731245596124E-06
   285 0.42139592897044E-06
   286 -.78393881071408E-06
   287 0.63809958607724E-06
   288 0.23112991147714E-06
   289 -.10702316750960E-04
   290 -.12788771737604E-04
   291 -.32956190920122E-04
   292 0.13565673788587E-03
   293 0.69884917200619E-04
   294 -.18846534365050E-05
   295 -.20432503428190E-05
   296 -.22179631038714E-05
   297 -.23357245932283E-05
   298 0.30741428194045E-04
   299 0.24935961677378E-04
   300 -.12051953015560E-03
   301 0.38190742347291E-04
   302 -.53411015742469E-04
   303 -.17102422271617E-05
   304 -.73879303465216E-06
   305 0.24490352618138E-05
   306 -.24203131174637E-05
   307 0.31872910194007E-05
   308 -.85046143518773E-06
   309 0.88354720273612E-05
   310 0.16815478930188E-05
   311 -.10517019920380E-04
   312 0.58261846280579E-05
   313 -.55666320047037E-05
   314 0.37488043661309E-05
   315 0.84511701321407E-07
   316 0.17947470949488E-07
   317 0.52827320221904E-06
   318 0.38563376331732E-06
   319 0.65729578969267E-06
   320 -.11715357505988E-05
   321 -.49901810874662E-06
   322 -.68137484873303E-06
   323 0.46278287608680E-06
   324 0.35217174194597E-06
   325 -.55234932342120E-04
   326 -.25586699076405E-03
   327 0.13777105666284E-02
   328 0.96972889437895E-04
   329 -.81685199532470E-04
   330 0.56114582301329E-04
   331 -.31234736828112E-04
   332 -.46194856746046E-03
   333 0.70882408875749E-03
   334 0.90117057812439E-04
   335 -.53407367158950E-04
   336 0.12963578377104E-03
   337 0.82580695329472E-03
   338 0.12276628764923E-02
   339 -.65619113782842E-03
   340 -.64911717544888E-03
   341 -.65256687394394E-03
   342 0.29345882306697E-03
   343 0.34338073432535E-04
   344 0.36342653519635E-04
   345 -.46977729603866E-03
   346 -.13555235349459E-04
   347 -.66564860784844E-05
   348 0.29663688107061E-04
   349 -.41383252020635E-04
   350 -.28110669806537E-03
   351 -.58628098715857E-04
   352 -.27504959241594E-05
   353 -.85678141884217E-05
   354 0.63039594248778E-04
   355 0.86640038292437E-05
   356 -.12986605521907E-03
   357 -.13573755679904E-04
   358 -.24748751741133E-04
   359 -.48555337111594E-05
   360 -.14515060439606E-04
 Sym=     2a   
 Ene= -.19181376940061E+02
 Spin= Alpha
 Occup= 2.000000
     1 -.10690783889049E-06
     2 0.23112572356505E-06
     3 0.69221128051964E-04
     4 -.36041974229851E-04
     5 -.54803739726176E-02
     6 -.21216732610918E-04
     7 -.26977414309480E-04
     8 -.30620997969416E-04
     9 0.17620876290637E-03
    10 0.14493709361267E-03
    11 0.10870351080662E-03
    12 0.58202462148501E-03
    13 -.20058713340354E-02
    14 -.66215079002854E-04
    15 0.63302337929135E-05
    16 -.61796396937155E-05
    17 -.15059409919798E-06
    18 0.12016903470186E-04
    19 0.22482269268306E-05
    20 0.51857004472253E-05
    21 -.52919375903078E-04
    22 0.64330530338612E-04
    23 -.11411154435534E-04
    24 -.48851005639565E-04
    25 -.47953186505323E-04
    26 -.51308004632007E-04
    27 0.26347666859789E-05
    28 0.32898448970572E-05
    29 -.65774470968316E-05
    30 -.41944029356858E-05
    31 -.20375428639663E-05
    32 0.57896154029108E-05
    33 0.65949248686542E-06
    34 -.23762472311841E-05
    35 0.30349558932436E-05
    36 -.12388190208724E-06
    37 -.97872942102166E-06
    38 0.48521735054245E-05
    39 -.62990644561398E-04
    40 0.36004473013445E-03
    41 0.22283221187798E-02
    42 0.88931962726693E-05
    43 -.46285114940730E-05
    44 -.11363278112149E-04
    45 -.17229093180182E-03
    46 0.84444676551736E-04
    47 -.43275095008621E-04
    48 -.91537944597806E-03
    49 -.67882078517970E-03
    50 0.47361072661277E-03
    51 0.10720348874315E-04
    52 0.25078860046438E-05
    53 -.13228234878959E-04
    54 -.29417947907269E-05
    55 0.73814296371514E-06
    56 0.31972247887716E-05
    57 -.10365145035465E-03
    58 0.14409772152097E-04
    59 0.89241678202557E-04
    60 0.27219735333959E-04
    61 -.34706097571478E-04
    62 -.56960072737561E-04
    63 -.60865677640043E-06
    64 -.34081553145889E-05
    65 0.20477969865027E-05
    66 0.12192455519133E-05
    67 0.23521376308094E-05
    68 -.12883121271136E-05
    69 -.40264679571490E-06
    70 0.22203825459694E-05
    71 -.14590958324500E-05
    72 -.15972730971842E-05
    73 -.63268028002439E-05
    74 -.31956376838060E-05
    75 -.40138754580341E-04
    76 0.57025394725978E-04
    77 -.34732320562421E-03
    78 0.23161574717902E-04
    79 -.95402768956425E-05
    80 -.67186852330347E-05
    81 -.13190579816909E-03
    82 0.76318154354669E-04
    83 0.48085607163460E-05
    84 0.35915324062467E-03
    85 0.88708644777314E-04
    86 -.13147690776175E-03
    87 0.25483758260073E-05
    88 0.21236594235139E-07
    89 -.25696124202425E-05
    90 0.10181164181992E-07
    91 -.27574209470327E-05
    92 -.19639782368572E-05
    93 -.54177801271732E-05
    94 -.65204488056093E-05
    95 0.11938228932782E-04
    96 0.56536236988894E-05
    97 0.52428609162235E-05
    98 0.77573309400150E-05
    99 0.99215618416290E-06
   100 0.65363846170447E-06
   101 -.34588494864061E-06
   102 -.85101172942984E-06
   103 -.68738264647219E-07
   104 -.14140556197237E-06
   105 -.48010547382118E-06
   106 -.80820975520054E-06
   107 0.60545891650503E-06
   108 -.15859907534914E-06
   109 0.10117092253510E-04
   110 0.17360646230109E-04
   111 -.21559733158693E-04
   112 0.95636126154340E-04
   113 -.77012543882728E-04
   114 -.42792267740544E-05
   115 0.60085125722091E-05
   116 0.89174445121831E-05
   117 -.15212745427845E-04
   118 -.17358343714265E-04
   119 -.61053781349654E-04
   120 -.44137070357909E-04
   121 0.85648480117346E-04
   122 -.57759494186985E-04
   123 0.87245905653147E-06
   124 0.23133655853238E-05
   125 -.31858246418552E-05
   126 0.78548478902822E-07
   127 -.20779404451907E-05
   128 0.26428032245720E-05
   129 -.63347112329576E-05
   130 -.99480548941252E-05
   131 0.16282766127083E-04
   132 -.58720019447995E-05
   133 0.18704649084753E-04
   134 -.93101292376521E-05
   135 0.12874209155872E-05
   136 0.72270462289296E-06
   137 -.31077419959960E-06
   138 -.31324076652668E-06
   139 -.58232167910365E-06
   140 -.17282876410511E-06
   141 -.14140156432182E-05
   142 -.38728831956156E-06
   143 0.58977610567979E-06
   144 0.74558921739302E-06
   145 -.66171464119066E-04
   146 -.59468914568421E-04
   147 -.39015246355845E-03
   148 0.14318693866482E-02
   149 -.37610845370495E-03
   150 0.39421143580010E-04
   151 -.66379599883481E-04
   152 -.19976499749328E-04
   153 -.40312574780480E-03
   154 0.55413610886261E-03
   155 0.14673169396857E-03
   156 0.10698605105268E-02
   157 -.68461098640248E-03
   158 0.22214355057273E-03
   159 0.10738205708929E-04
   160 -.84006946650519E-05
   161 -.23375110438773E-05
   162 0.22970707361596E-05
   163 0.33196770861137E-05
   164 0.19536464331718E-05
   165 -.24525704726451E-04
   166 0.47153815207009E-04
   167 -.22628110480558E-04
   168 -.66460951976562E-04
   169 0.12216353823411E-05
   170 0.85240097359776E-05
   171 0.10381143135783E-05
   172 0.94742446691547E-06
   173 -.28972046408766E-05
   174 -.42009611351408E-05
   175 -.18143984284035E-05
   176 0.36536357877170E-05
   177 0.28081846309948E-05
   178 0.54329512146176E-06
   179 0.23337212531976E-06
   180 0.67449581787267E-06
   181 0.15839884900256E-04
   182 -.77652413383674E-04
   183 0.38580295401107E-03
   184 0.19691433773328E-02
   185 0.46302755530337E-04
   186 -.26918443454288E-04
   187 -.11201704469606E-03
   188 -.81807816067232E-04
   189 -.19620796631054E-02
   190 0.74526967787309E-03
   191 -.77800466335378E-03
   192 0.36221276200859E-02
   193 -.23389145532799E-02
   194 -.20218482636084E-03
   195 0.48890361628417E-04
   196 -.34705191312484E-04
   197 -.14185170315934E-04
   198 -.13929121124689E-04
   199 0.40112748426929E-04
   200 0.22167813778694E-04
   201 0.15324181658596E-03
   202 -.23749175697373E-03
   203 0.84249940387766E-04
   204 0.47797402094636E-03
   205 0.24857190343770E-03
   206 -.41471038844556E-03
   207 -.12566712656139E-04
   208 -.14170963978998E-05
   209 -.24426741056422E-05
   210 0.43585113660466E-05
   211 -.39058712157002E-05
   212 -.12273601660284E-04
   213 0.12501502885654E-04
   214 0.58071055415246E-05
   215 0.15550792868540E-04
   216 0.41098997175379E-05
   217 0.43006433711999E-04
   218 -.23431346454955E-03
   219 -.45613055023269E-03
   220 0.36551280506696E-02
   221 -.33034760994192E-03
   222 0.39573499545668E-04
   223 -.67238344979999E-04
   224 -.47021250512355E-04
   225 -.20636092867898E-02
   226 -.44181254563112E-02
   227 -.49133634357842E-02
   228 0.52879608726131E-03
   229 0.46233301171182E-02
   230 0.43932284206134E-02
   231 -.10028550784226E-03
   232 0.45970257808002E-04
   233 0.54315250034255E-04
   234 0.54849309178991E-04
   235 0.96744707866161E-04
   236 0.27279198196190E-03
   237 -.17062627886534E-02
   238 0.92693784668994E-03
   239 0.77932494196341E-03
   240 0.61281903176826E-03
   241 -.18921427557310E-04
   242 0.19656350348427E-02
   243 0.24216270761832E-04
   244 0.65202547900786E-04
   245 0.78578376439928E-04
   246 0.35651675352233E-04
   247 0.11611464457730E-04
   248 0.33117835050961E-05
   249 -.68141211903231E-04
   250 -.99089862105137E-04
   251 -.10873573827384E-03
   252 -.47093958844705E-04
   253 -.38938086443761E-04
   254 -.40515959115771E-04
   255 -.25077485799884E-03
   256 0.18274412787178E-02
   257 -.29268010506517E-02
   258 0.84129863011394E-04
   259 -.68651754571318E-04
   260 -.22883727837149E-04
   261 -.21909475006898E-03
   262 -.18674988955454E-03
   263 -.24431977211316E-03
   264 -.80839738572592E-03
   265 -.36100881164213E-03
   266 -.76720408370052E-03