[Molden Format]
[Title]
                                                                                
[Atoms] AU
 c     1    6 -.24271589901314E+01 -.86600103778538E+00 0.83813128937487E+00
 c     2    6 -.52529998346502E+00 0.22220454118674E+00 -.10474358814142E+01
 c     3    6 0.21384875735331E+01 0.25876062714814E+00 0.23990398307910E-01
 o     4    8 0.33434445352184E+01 0.21680112824867E+01 0.34085933921518E+00
 o     5    8 0.30226649546137E+01 -.20581811891347E+01 0.57352861530402E+00
 o     6    8 -.12275321336102E+01 0.26877705715168E+01 -.17741864019974E+01
 h     7    1 -.19742530087875E+01 -.28197035399424E+01 0.13106460109663E+01
 h     8    1 -.43049226770971E+01 -.80021493214711E+00 -.54526516553400E-02
 h     9    1 -.24529710542898E+01 0.26334083415486E+00 0.25632940686523E+01
 h    10    1 -.47322222216324E+00 -.99511480099730E+00 -.27266726819021E+01
 h    11    1 0.47207407718759E+01 -.18607997693998E+01 0.12388737509219E+01
 h    12    1 0.16001656512262E+00 0.37999274129159E+01 -.13355739660462E+01
[GTO]
    1 0
 s    6 1.00
 0.13575349682000E+05 0.60645503603591E-03
 0.20352333680000E+04 0.46979088884982E-02
 0.46322562359000E+03 0.24332477647552E-01
 0.13120019598000E+03 0.97399968307759E-01
 0.42853015891000E+02 0.30195584253780E+00
 0.15584185766000E+02 0.66233609137875E+00
 s    2 1.00
 0.62067138508000E+01 0.65595308539952E+00
 0.25764896527000E+01 0.37585633285142E+00
 s    1 1.00
 0.57696339419000E+00 0.10000000000000E+01
 s    1 1.00
 0.22972831358000E+00 0.10000000000000E+01
 s    1 1.00
 0.95164440028000E-01 0.10000000000000E+01
 p    4 1.00
 0.34697232244000E+02 0.11327220003114E-01
 0.79582622826000E+01 0.76169659202087E-01
 0.23780826883000E+01 0.30192252202676E+00
 0.81433208183000E+00 0.72785027349547E+00
 p    1 1.00
 0.28887547253000E+00 0.10000000000000E+01
 p    1 1.00
 0.10056823671000E+00 0.10000000000000E+01
 d    1 1.00
 0.10970000000000E+01 0.10000000000000E+01
 d    1 1.00
 0.31800000000000E+00 0.10000000000000E+01
 f    1 1.00
 0.76100000000000E+00 0.10000000000000E+01
 
    2 0
 s    6 1.00
 0.13575349682000E+05 0.60645503603591E-03
 0.20352333680000E+04 0.46979088884982E-02
 0.46322562359000E+03 0.24332477647552E-01
 0.13120019598000E+03 0.97399968307759E-01
 0.42853015891000E+02 0.30195584253780E+00
 0.15584185766000E+02 0.66233609137875E+00
 s    2 1.00
 0.62067138508000E+01 0.65595308539952E+00
 0.25764896527000E+01 0.37585633285142E+00
 s    1 1.00
 0.57696339419000E+00 0.10000000000000E+01
 s    1 1.00
 0.22972831358000E+00 0.10000000000000E+01
 s    1 1.00
 0.95164440028000E-01 0.10000000000000E+01
 p    4 1.00
 0.34697232244000E+02 0.11327220003114E-01
 0.79582622826000E+01 0.76169659202087E-01
 0.23780826883000E+01 0.30192252202676E+00
 0.81433208183000E+00 0.72785027349547E+00
 p    1 1.00
 0.28887547253000E+00 0.10000000000000E+01
 p    1 1.00
 0.10056823671000E+00 0.10000000000000E+01
 d    1 1.00
 0.10970000000000E+01 0.10000000000000E+01
 d    1 1.00
 0.31800000000000E+00 0.10000000000000E+01
 f    1 1.00
 0.76100000000000E+00 0.10000000000000E+01
 
    3 0
 s    6 1.00
 0.13575349682000E+05 0.60645503603591E-03
 0.20352333680000E+04 0.46979088884982E-02
 0.46322562359000E+03 0.24332477647552E-01
 0.13120019598000E+03 0.97399968307759E-01
 0.42853015891000E+02 0.30195584253780E+00
 0.15584185766000E+02 0.66233609137875E+00
 s    2 1.00
 0.62067138508000E+01 0.65595308539952E+00
 0.25764896527000E+01 0.37585633285142E+00
 s    1 1.00
 0.57696339419000E+00 0.10000000000000E+01
 s    1 1.00
 0.22972831358000E+00 0.10000000000000E+01
 s    1 1.00
 0.95164440028000E-01 0.10000000000000E+01
 p    4 1.00
 0.34697232244000E+02 0.11327220003114E-01
 0.79582622826000E+01 0.76169659202087E-01
 0.23780826883000E+01 0.30192252202676E+00
 0.81433208183000E+00 0.72785027349547E+00
 p    1 1.00
 0.28887547253000E+00 0.10000000000000E+01
 p    1 1.00
 0.10056823671000E+00 0.10000000000000E+01
 d    1 1.00
 0.10970000000000E+01 0.10000000000000E+01
 d    1 1.00
 0.31800000000000E+00 0.10000000000000E+01
 f    1 1.00
 0.76100000000000E+00 0.10000000000000E+01
 
    4 0
 s    6 1.00
 0.27032382631000E+05 0.57227335211155E-03
 0.40523871392000E+04 0.44353233492995E-02
 0.92232722710000E+03 0.23020107706038E-01
 0.26124070989000E+03 0.92822490667928E-01
 0.85354641351000E+02 0.29378500009671E+00
 0.31035035245000E+02 0.67401604501641E+00
 s    2 1.00
 0.12260860728000E+02 0.63839937025506E+00
 0.49987076005000E+01 0.39534587125718E+00
 s    1 1.00
 0.11703108158000E+01 0.10000000000000E+01
 s    1 1.00
 0.46474740994000E+00 0.10000000000000E+01
 s    1 1.00
 0.18504536357000E+00 0.10000000000000E+01
 p    4 1.00
 0.63274954801000E+02 0.12018332222616E-01
 0.14627049379000E+02 0.83005421790056E-01
 0.44501223456000E+01 0.31991743925964E+00
 0.15275799647000E+01 0.70715542916104E+00
 p    1 1.00
 0.52935117943000E+00 0.10000000000000E+01
 p    1 1.00
 0.17478421270000E+00 0.10000000000000E+01
 d    1 1.00
 0.23140000000000E+01 0.10000000000000E+01
 d    1 1.00
 0.64500000000000E+00 0.10000000000000E+01
 f    1 1.00
 0.14280000000000E+01 0.10000000000000E+01
 
    5 0
 s    6 1.00
 0.27032382631000E+05 0.57227335211155E-03
 0.40523871392000E+04 0.44353233492995E-02
 0.92232722710000E+03 0.23020107706038E-01
 0.26124070989000E+03 0.92822490667928E-01
 0.85354641351000E+02 0.29378500009671E+00
 0.31035035245000E+02 0.67401604501641E+00
 s    2 1.00
 0.12260860728000E+02 0.63839937025506E+00
 0.49987076005000E+01 0.39534587125718E+00
 s    1 1.00
 0.11703108158000E+01 0.10000000000000E+01
 s    1 1.00
 0.46474740994000E+00 0.10000000000000E+01
 s    1 1.00
 0.18504536357000E+00 0.10000000000000E+01
 p    4 1.00
 0.63274954801000E+02 0.12018332222616E-01
 0.14627049379000E+02 0.83005421790056E-01
 0.44501223456000E+01 0.31991743925964E+00
 0.15275799647000E+01 0.70715542916104E+00
 p    1 1.00
 0.52935117943000E+00 0.10000000000000E+01
 p    1 1.00
 0.17478421270000E+00 0.10000000000000E+01
 d    1 1.00
 0.23140000000000E+01 0.10000000000000E+01
 d    1 1.00
 0.64500000000000E+00 0.10000000000000E+01
 f    1 1.00
 0.14280000000000E+01 0.10000000000000E+01
 
    6 0
 s    6 1.00
 0.27032382631000E+05 0.57227335211155E-03
 0.40523871392000E+04 0.44353233492995E-02
 0.92232722710000E+03 0.23020107706038E-01
 0.26124070989000E+03 0.92822490667928E-01
 0.85354641351000E+02 0.29378500009671E+00
 0.31035035245000E+02 0.67401604501641E+00
 s    2 1.00
 0.12260860728000E+02 0.63839937025506E+00
 0.49987076005000E+01 0.39534587125718E+00
 s    1 1.00
 0.11703108158000E+01 0.10000000000000E+01
 s    1 1.00
 0.46474740994000E+00 0.10000000000000E+01
 s    1 1.00
 0.18504536357000E+00 0.10000000000000E+01
 p    4 1.00
 0.63274954801000E+02 0.12018332222616E-01
 0.14627049379000E+02 0.83005421790056E-01
 0.44501223456000E+01 0.31991743925964E+00
 0.15275799647000E+01 0.70715542916104E+00
 p    1 1.00
 0.52935117943000E+00 0.10000000000000E+01
 p    1 1.00
 0.17478421270000E+00 0.10000000000000E+01
 d    1 1.00
 0.23140000000000E+01 0.10000000000000E+01
 d    1 1.00
 0.64500000000000E+00 0.10000000000000E+01
 f    1 1.00
 0.14280000000000E+01 0.10000000000000E+01
 
    7 0
 s    3 1.00
 0.34061341000000E+02 0.25439307208879E-01
 0.51235746000000E+01 0.19008594890375E+00
 0.11646626000000E+01 0.85244113011042E+00
 s    1 1.00
 0.32723041000000E+00 0.10000000000000E+01
 s    1 1.00
 0.10307241000000E+00 0.10000000000000E+01
 p    1 1.00
 0.80000000000000E+00 0.10000000000000E+01
 
    8 0
 s    3 1.00
 0.34061341000000E+02 0.25439307208879E-01
 0.51235746000000E+01 0.19008594890375E+00
 0.11646626000000E+01 0.85244113011042E+00
 s    1 1.00
 0.32723041000000E+00 0.10000000000000E+01
 s    1 1.00
 0.10307241000000E+00 0.10000000000000E+01
 p    1 1.00
 0.80000000000000E+00 0.10000000000000E+01
 
    9 0
 s    3 1.00
 0.34061341000000E+02 0.25439307208879E-01
 0.51235746000000E+01 0.19008594890375E+00
 0.11646626000000E+01 0.85244113011042E+00
 s    1 1.00
 0.32723041000000E+00 0.10000000000000E+01
 s    1 1.00
 0.10307241000000E+00 0.10000000000000E+01
 p    1 1.00
 0.80000000000000E+00 0.10000000000000E+01
 
   10 0
 s    3 1.00
 0.34061341000000E+02 0.25439307208879E-01
 0.51235746000000E+01 0.19008594890375E+00
 0.11646626000000E+01 0.85244113011042E+00
 s    1 1.00
 0.32723041000000E+00 0.10000000000000E+01
 s    1 1.00
 0.10307241000000E+00 0.10000000000000E+01
 p    1 1.00
 0.80000000000000E+00 0.10000000000000E+01
 
   11 0
 s    3 1.00
 0.34061341000000E+02 0.25439307208879E-01
 0.51235746000000E+01 0.19008594890375E+00
 0.11646626000000E+01 0.85244113011042E+00
 s    1 1.00
 0.32723041000000E+00 0.10000000000000E+01
 s    1 1.00
 0.10307241000000E+00 0.10000000000000E+01
 p    1 1.00
 0.80000000000000E+00 0.10000000000000E+01
 
   12 0
 s    3 1.00
 0.34061341000000E+02 0.25439307208879E-01
 0.51235746000000E+01 0.19008594890375E+00
 0.11646626000000E+01 0.85244113011042E+00
 s    1 1.00
 0.32723041000000E+00 0.10000000000000E+01
 s    1 1.00
 0.10307241000000E+00 0.10000000000000E+01
 p    1 1.00
 0.80000000000000E+00 0.10000000000000E+01
 
[MO]
 Sym=     1a   
 Ene= -.19194544694306E+02
 Spin= Alpha
 Occup= 2.000000
     1 -.15924518263939E-06
     2 0.61994651787828E-06
     3 0.22319160981380E-03
     4 -.14921292593461E-02
     5 0.34888450360338E-02
     6 0.17778857095096E-04
     7 -.14689544017270E-04
     8 -.18852193511601E-04
     9 -.36578290467202E-03
    10 -.32400821575854E-03
    11 0.77864792234739E-03
    12 0.11844869881940E-02
    13 0.95577959920397E-03
    14 0.17847514333126E-03
    15 0.12922555283892E-04
    16 -.20267507224183E-04
    17 0.73449519402901E-05
    18 -.35606395816531E-04
    19 0.61507546096117E-05
    20 0.21507683562906E-05
    21 -.21618897636302E-03
    22 0.18166752633262E-03
    23 0.34521450030403E-04
    24 -.71753455557404E-04
    25 0.73951316295689E-04
    26 0.20791617927733E-03
    27 0.58481103667403E-05
    28 0.51048848155291E-05
    29 -.91075728644070E-05
    30 -.11098705683103E-04
    31 -.17826488466822E-04
    32 0.18588836387469E-04
    33 0.32526422911312E-05
    34 0.10977566787924E-04
    35 -.63697451665609E-05
    36 0.18365447968273E-04
    37 0.75401439592485E-05
    38 -.35187104841340E-04
    39 -.43640453675396E-03
    40 0.56956517302826E-02
    41 -.46532942732343E-02
    42 0.80252091333870E-04
    43 0.80242970666749E-04
    44 -.29136336597044E-04
    45 0.20236307692232E-02
    46 -.11486082319425E-02
    47 0.15442097541443E-02
    48 0.83804286430925E-03
    49 -.15122701421030E-02
    50 -.90158119494141E-03
    51 0.20526578967116E-04
    52 0.23275574817348E-04
    53 -.43802153784465E-04
    54 0.55797999047437E-05
    55 0.38469107117833E-04
    56 -.72995433652758E-05
    57 0.61626171437498E-03
    58 -.89153794152592E-03
    59 0.27527622715094E-03
    60 0.16865891722601E-03
    61 0.71737833883108E-04
    62 0.11122647717926E-03
    63 0.34132975443984E-04
    64 -.27621519928218E-04
    65 -.12334179111214E-04
    66 -.38937670750495E-04
    67 0.42990539009204E-04
    68 0.23580459286891E-04
    69 -.68565212697531E-05
    70 -.59323812883878E-05
    71 -.70324215232911E-05
    72 0.26257035778621E-04
    73 0.40629798174332E-04
    74 -.22251007143796E-03
    75 -.33444095621949E-03
    76 0.24687949284545E-02
    77 -.32473817192628E-02
    78 -.38842797091296E-04
    79 -.73219223724609E-04
    80 -.34780689028244E-04
    81 0.40859094646193E-02
    82 -.61898817283385E-02
    83 0.22716348441236E-02
    84 -.83828982018461E-03
    85 0.65809778185957E-02
    86 -.99407902596555E-03
    87 -.62041108072909E-04
    88 0.21476954392115E-03
    89 -.15272843584824E-03
    90 -.15589060446744E-03
    91 0.72428954955746E-04
    92 -.10044430744433E-03
    93 -.15502726422470E-02
    94 0.21902335212500E-02
    95 -.63996087900292E-03
    96 -.16415102667139E-02
    97 -.30115906770510E-03
    98 -.92716906108174E-03
    99 -.20471332728299E-04
   100 -.67883324147660E-04
   101 -.74670375364904E-04
   102 0.52145871213284E-04
   103 -.25564839351206E-04
   104 0.43190336054365E-04
   105 -.24680696270988E-04
   106 0.11663987575090E-03
   107 0.56990485078446E-04
   108 -.95861784515610E-04
   109 -.42542125288619E-04
   110 -.44739667027263E-04
   111 -.27458989366921E-03
   112 0.20107007865226E-02
   113 -.27444868355183E-02
   114 -.84368301067940E-04
   115 -.60033097792426E-04
   116 -.17723648711773E-04
   117 0.33272841192916E-03
   118 -.44822364733502E-03
   119 0.12463513266123E-03
   120 0.70151892151353E-03
   121 -.57037326002430E-03
   122 0.42572994685213E-03
   123 0.24255646640569E-04
   124 0.12722289924197E-04
   125 -.36977936564767E-04
   126 0.43887704040477E-05
   127 0.34052738543285E-04
   128 -.41524704751960E-05
   129 -.16541213147990E-03
   130 0.58075528563677E-04
   131 0.10733660291623E-03
   132 -.21275548651489E-04
   133 -.14745430783637E-03
   134 0.35282144674109E-05
   135 0.57334875337853E-05
   136 0.10626052077325E-04
   137 0.14479826981424E-05
   138 -.55195397281793E-05
   139 0.13432623173620E-05
   140 0.52975742881741E-05
   141 -.21727409960356E-05
   142 -.15599607183772E-04
   143 -.72402469341481E-05
   144 0.89750578783375E-05
   145 0.43508672331060E+00
   146 0.63949680847475E+00
   147 0.36657729760282E-01
   148 -.30120281161685E-01
   149 0.12752943145540E-01
   150 0.56632627507330E-03
   151 0.18680703156494E-02
   152 0.68784702754686E-04
   153 0.21338503810016E-03
   154 -.55045135768273E-02
   155 0.57021562645159E-03
   156 -.35067361960203E-03
   157 0.10384941143087E-02
   158 -.28609348420405E-03
   159 0.21144512637900E-04
   160 0.62456482931603E-04
   161 -.83600995569503E-04
   162 -.63470943822777E-04
   163 0.63222172236743E-04
   164 -.40724227871181E-04
   165 -.28266367668901E-04
   166 -.47916537762047E-03
   167 0.50743174528937E-03
   168 0.41363867403737E-03
   169 -.33924291149959E-03
   170 0.26934541568262E-03
   171 -.53916946165839E-04
   172 -.26762563333878E-04
   173 0.87621113405471E-05
   174 0.70472860695485E-04
   175 0.79189927195793E-05
   176 -.48638010910966E-04
   177 0.18643133641223E-05
   178 0.27986753800438E-04
   179 0.36882404960635E-04
   180 -.17484563040311E-04
   181 -.13154320431926E-04
   182 0.19174685010537E-05
   183 -.25656815891959E-03
   184 0.11691334772404E-02
   185 0.53950386893259E-03
   186 -.39971918406073E-04
   187 0.42251616940376E-04
   188 -.27799411908198E-04
   189 0.37587443881272E-03
   190 -.47616742515250E-03
   191 0.25546869897392E-03
   192 -.74708412072832E-03
   193 0.12130122197543E-03
   194 -.14926512403636E-03
   195 0.12326316603290E-04
   196 0.37033006133506E-05
   197 -.16029617216641E-04
   198 -.61471704274094E-05
   199 0.12142146842301E-04
   200 -.14903657342819E-05
   201 -.36608587060242E-04
   202 0.92680514617293E-06
   203 0.35681781914069E-04
   204 -.11014845352403E-04
   205 -.14151867157698E-04
   206 -.20212021267791E-04
   207 -.19909414046027E-05
   208 0.51819580077003E-05
   209 0.28569731554406E-06
   210 0.31490028365185E-05
   211 -.41656920343898E-05
   212 0.14741994308573E-05
   213 -.47787464457218E-06
   214 -.27866341826705E-05
   215 -.18575026019847E-05
   216 -.24004623869726E-05
   217 0.16675608927271E-04
   218 -.11783830939825E-03
   219 0.13805198964626E-04
   220 0.61081550927264E-04
   221 0.14778380829296E-04
   222 0.15233106840223E-04
   223 0.50103134492193E-04
   224 0.39852720401268E-03
   225 0.20595586374731E-03
   226 0.91915277477165E-04
   227 0.16349791614027E-04
   228 0.31017060942740E-04
   229 -.16932987052661E-04
   230 -.56853513446228E-03
   231 -.63159280337755E-03
   232 0.66552968305359E-05
   233 0.19569337434580E-04
   234 0.75444785696004E-04
   235 -.35442536948643E-04
   236 -.47850785657705E-03
   237 0.67433263565028E-03
   238 0.15455021092946E-04
   239 -.18253391880729E-03
   240 -.17487218490319E-04
   241 0.82306610907739E-03
   242 0.11962388968857E-02
   243 -.55176917010141E-03
   244 -.89185119820275E-03
   245 -.11557447086116E-03
   246 -.33963859177967E-03
   247 0.11506518365877E-04
   248 -.19033885330016E-04
   249 -.32838448283479E-03
   250 -.12536940285804E-04
   251 0.13110267447614E-03
   252 -.19197863684818E-04
 Sym=     2a   
 Ene= -.19138396099952E+02
 Spin= Alpha
 Occup= 2.000000
     1 -.16584752832510E-05
     2 0.80479921226867E-05
     3 -.10422448399098E-03
     4 -.90998671495035E-05
     5 0.19857193416358E-02
     6 -.52354500629759E-04
     7 -.26240195787495E-04
     8 0.28187019704562E-04
     9 0.17128736041360E-03
    10 -.86247058840477E-04
    11 0.38511204087888E-04
    12 0.48407417976040E-03
    13 -.54325921352967E-03
    14 -.87347213296121E-03
    15 -.10116233692862E-04
    16 -.16616681059378E-05
    17 0.11777901798800E-04
    18 -.24991280089022E-04
    19 0.14917676729719E-04
    20 -.53116704525961E-05
    21 -.29325734721226E-04
    22 -.31595230793756E-04
    23 0.60920965514982E-04
    24 -.18977847800549E-04
    25 -.19416037071209E-03
    26 0.13954867951294E-03
    27 -.28871590392696E-05
    28 -.28642155933330E-06
    29 0.12010988962516E-04
    30 -.94740764169037E-05
    31 -.98420082204740E-05
    32 -.14211808518318E-04
    33 0.13347606741100E-04
    34 0.10226283066608E-04
    35 -.19026241599932E-05
    36 0.49603276165782E-05
    37 0.14022981914809E-04
    38 -.68685826551496E-04
    39 0.27495759021606E-03
    40 0.20180767877106E-02
    41 -.25507115551239E-02
    42 0.92183068653091E-04
    43 0.12171690570650E-03
    44 0.57518867415270E-05
    45 0.25992059292370E-02
    46 -.29159917209533E-03
    47 0.91794796224897E-03
    48 -.45581397935127E-06
    49 0.23472472435756E-02
    50 -.28751772884286E-03
    51 0.44361118935017E-04
    52 0.17047596478615E-04
    53 -.61408715413633E-04
    54 0.22804485310234E-04
    55 0.73669634687374E-04
    56 0.38161369286467E-05
    57 0.71403653596653E-03
    58 -.10044128351945E-02
    59 0.29037629922794E-03
    60 0.25445347032246E-03
    61 0.13866568371439E-03
    62 0.37832008682125E-03
    63 0.16533715602186E-04
    64 -.48300603630222E-04
    65 -.68848172312993E-05
    66 -.36115708913472E-04
    67 0.39758901628404E-04
    68 0.85627755333117E-05
    69 0.13933401709190E-04
    70 0.25043158214466E-04
    71 0.67417607179658E-06
    72 0.77201366678546E-05
    73 0.41287295082671E-04
    74 -.25083607254422E-03
    75 0.96339500211370E-03
    76 0.34214959639202E-02
    77 -.29848544594528E-02
    78 0.31957345231479E-03
    79 0.64635007571018E-03
    80 0.70280013674899E-04
    81 0.61705386370517E-02
    82 0.72093837531000E-02
    83 0.18743618647618E-02
    84 -.24990973427361E-02
    85 -.59429071371251E-02
    86 -.60227108832777E-03
    87 0.12762024866360E-04
    88 0.10842911982531E-03
    89 -.12119114469167E-03
    90 0.19390139173279E-03
    91 0.50158687134960E-04
    92 0.55055230951183E-04
    93 -.87222310125934E-03
    94 0.17783687243381E-02
    95 -.90614562307872E-03
    96 0.23497772690730E-02
    97 -.26398647407593E-03
    98 0.66361059397774E-03
    99 0.50731027025242E-04
   100 0.42538223841746E-04
   101 -.12579255111965E-04
   102 -.55299036822119E-04
   103 -.14078327356136E-05
   104 0.56948199681581E-04
   105 -.12763778175974E-04
   106 -.55663183355734E-04
   107 -.40071357959582E-04
   108 0.35783984698853E-04
   109 0.43508370946616E+00
   110 0.63949719212038E+00
   111 0.36620234692598E-01
   112 -.31428515076296E-01
   113 0.12201171629784E-01
   114 -.12182056108088E-02
   115 -.18897579784418E-02
   116 -.32558927751451E-03
   117 0.36690545309380E-02
   118 0.55507800286840E-02
   119 0.99661352945577E-03
   120 -.54676822567216E-03
   121 -.49116144285328E-03
   122 -.13417353240365E-03
   123 -.26320090487788E-04
   124 0.95604802102402E-04
   125 -.69284711614615E-04
   126 0.15568546766708E-03
   127 0.68059764176394E-05
   128 0.47742035165016E-04
   129 0.94812884831599E-04
   130 -.48036008785293E-03
   131 0.38554720302133E-03
   132 -.74930692240204E-03
   133 -.77639722623958E-04
   134 -.21804558001042E-03
   135 -.20850925294058E-04
   136 0.12332216986055E-04
   137 -.10975103783149E-04
   138 0.45046612233476E-04
   139 0.10688648802921E-04
   140 0.36396638309600E-05
   141 -.17072160422706E-04
   142 -.27234054099379E-04
   143 0.11084983040582E-04
   144 0.12525990542219E-04
   145 0.39439581606404E-04
   146 0.76164500074805E-04
   147 -.34887418849435E-03
   148 0.19758905303480E-02
   149 -.21447386706670E-02
   150 -.34293822843515E-04
   151 0.43620852854133E-04
   152 -.10491943154117E-04
   153 0.13529159092168E-03
   154 0.56131488496821E-03
   155 -.17858466988160E-04
   156 0.94294082899631E-03
   157 0.39676297160185E-03
   158 0.35986581030091E-03
   159 0.31360524388032E-04
   160 0.58850469548907E-05
   161 -.37245571342922E-04
   162 -.11226694988862E-04
   163 0.35354063644337E-04
   164 -.98044141114583E-05
   165 -.19141905059807E-03
   166 0.11700276310374E-03
   167 0.74416287494329E-04
   168 0.18796944083093E-04
   169 -.13473322699981E-03
   170 0.67706917487856E-05
   171 0.11191962042319E-04
   172 -.68591266206049E-05
   173 -.46701989394176E-05
   174 -.17339472447302E-04
   175 -.70123595535093E-05
   176 0.85213158211903E-05
   177 0.23238796903680E-05
   178 0.16214843587480E-04
   179 -.22555864429992E-05
   180 -.10735251925602E-04
   181 -.21548146126216E-03
   182 -.26365087241615E-03
   183 -.51127092705924E-03
   184 0.17632119750035E-02
   185 -.47227409993302E-03
   186 -.33432947326559E-04
   187 0.76033038216485E-04
   188 -.33944124243919E-04
   189 0.31020552743511E-03
   190 -.73299281352090E-03
   191 0.28490807152457E-03
   192 0.24664840097561E-03
   193 0.85985849702506E-05
   194 0.50605037286976E-04
   195 -.18369069982752E-05
   196 0.22368716123335E-05
   197 -.39996461405833E-06
   198 0.68936269739669E-05
   199 -.27563570693278E-05
   200 0.39280536258169E-05
   201 0.85783430341531E-06
   202 0.28477118448322E-04
   203 -.29334952751738E-04
   204 -.87483385613816E-04
   205 0.45207733615333E-04
   206 -.58674698805011E-04
   207 -.54242149231272E-07
   208 0.31005388047415E-05
   209 -.18584368523780E-05
   210 -.10531697608167E-05
   211 -.55958017095868E-05
   212 0.26029658118073E-05
   213 0.11259432405728E-05
   214 0.14359923890200E-05
   215 -.10961113152250E-06
   216 -.60366416704465E-05
   217 0.54075696415025E-04
   218 -.18772948075863E-03
   219 -.71725355169873E-03
   220 -.47493894940669E-04
   221 -.11069218426286E-04
   222 0.66924955025817E-04
   223 0.44480265479911E-04
   224 0.87861796526055E-04
   225 -.29253770517270E-03
   226 0.17412771174129E-04
   227 0.32176972591234E-04
   228 0.19820489055508E-05
   229 -.60590785544785E-05
   230 -.42316907853360E-03
   231 0.71643967707222E-03
   232 0.26035810456496E-04
   233 0.41398498021605E-04
   234 0.70673683760109E-04
   235 -.41635640787188E-04
   236 -.18056728268840E-03
   237 0.43579011821548E-03
   238 -.13221229437298E-03
   239 -.17024503233369E-03
   240 0.64410200995972E-04
   241 0.14605477242932E-03
   242 -.32615215492170E-03
   243 0.66874976217289E-04
   244 0.38578461579024E-04
   245 -.32480567748500E-04
   246 0.17272508320512E-04
   247 0.54084887250553E-04
   248 -.30737550357761E-03
   249 0.25469103932600E-03
   250 -.12663329458825E-03
   251 0.15244351213376E-03
   252 -.79521941907966E-04
 Sym=     3a   
 Ene= -.19125917968668E+02
 Spin= Alpha
 Occup= 2.000000
     1 0.10256041111717E-05
     2 -.38799195481998E-05
     3 -.25538619229576E-04
     4 0.18932719402686E-02
     5 0.39505029895291E-02
     6 -.51247149600821E-04
     7 0.47160223598431E-04
     8 -.64213611856403E-04
     9 0.10469660588574E-02
    10 0.96569962969146E-03
    11 -.51776865806781E-03
    12 0.99074942685618E-03
    13 0.14402847132928E-02
    14 -.10078611431504E-02
    15 -.27785844361789E-04
    16 0.47793849175345E-04
    17 -.20008004813557E-04
    18 -.18777930213647E-04
    19 -.15773626838292E-04
    20 -.48390587195375E-04
    21 0.44144601456765E-03
    22 -.53281995663158E-03
    23 0.91373942063929E-04
    24 0.43690537674624E-03
    25 -.20961676684978E-04
    26 0.24894927350162E-03
    27 0.24958678118079E-04
    28 -.61976998206366E-05
    29 -.68197647515463E-06
    30 -.20441665263895E-04
    31 0.32608193293359E-04
    32 -.21244162418973E-04
    33 -.13043915276442E-04
    34 -.24293106431510E-04
    35 0.22159129873474E-04
    36 0.15996662377228E-06
    37 0.21214328338143E-04
    38 -.11143086034431E-03
    39 -.17773442231286E-02
    40 0.53843446682061E-02
    41 -.22828395253563E-01
    42 0.42391134872723E-04
    43 -.36351504400689E-03
    44 0.10850430806381E-03
    45 -.28185203185630E-02
    46 0.73686639290280E-02
    47 -.26692118560437E-02
    48 -.18221818132393E-02
    49 -.27557935676571E-02
    50 -.28595611976221E-02
    51 -.13969394572786E-03
    52 0.19222776766153E-03
    53 -.52533821933678E-04
    54 -.16615598524309E-03
    55 0.33914452090824E-04
    56 -.17078180487228E-03
    57 -.10559404996777E-02
    58 0.25575209085829E-02
    59 -.15015804089051E-02
    60 -.67527828099049E-03
    61 0.15646436555775E-03
    62 -.79508187138034E-03
    63 0.56166646834373E-04
    64 0.14159446478533E-03
    65 0.10053383486563E-03
    66 -.10403490656161E-03
    67 -.89767162484562E-04
    68 0.29936048606622E-05
    69 0.28679442327684E-04
    70 -.10020174661406E-03
    71 -.13787389813963E-03
    72 0.54190772007500E-04
    73 -.19197850755818E-05
    74 0.95149892039218E-05
    75 0.67023861556213E-03
    76 -.95848308956701E-03
    77 0.91993465154423E-02
    78 0.84541044594107E-04
    79 0.29107889607256E-04
    80 -.23010684918974E-04
    81 -.29394380432010E-02
    82 -.29509055261411E-03
    83 -.73009775295151E-03
    84 -.44476452319465E-02
    85 0.26382531577768E-02
    86 -.18563672015513E-02
    87 -.38940171291244E-04
    88 0.24359260219191E-04
    89 0.14580911072053E-04
    90 -.10868685399471E-03
    91 0.33823305448655E-06
    92 -.65990945856035E-04
    93 0.10232893904979E-02
    94 -.14980117198862E-02
    95 0.47472232938821E-03
    96 0.64742361561325E-03
    97 -.11451998169277E-05
    98 0.62078280083279E-03
    99 0.94445034138028E-05
   100 0.14926401428939E-04
   101 -.18391654744221E-04
   102 -.30171344003963E-04
   103 -.29911579642364E-04
   104 0.34964217114857E-04
   105 0.17500213015767E-04
   106 0.98857106896298E-05
   107 -.10289222978786E-04
   108 -.16958409716379E-04
   109 0.20396577984103E-03
   110 0.35637054571627E-03
   111 -.56626083566387E-03
   112 0.22117812098291E-02
   113 -.12851785759468E-02
   114 0.10770493143258E-03
   115 0.42656938128749E-05
   116 0.72858155861774E-04
   117 -.10335644847625E-02
   118 -.29989514385413E-03
   119 -.53906647603671E-03
   120 0.42444101701875E-03
   121 -.70346887343239E-05
   122 0.25811507329576E-03
   123 -.13211523021323E-04
   124 0.15504385021228E-04
   125 -.22928619999047E-05
   126 -.15839124519997E-05
   127 -.61274537903958E-05
   128 -.70366336926311E-05
   129 0.11577182819278E-03
   130 -.71301116694115E-04
   131 -.44470711498661E-04
   132 0.11430605079140E-03
   133 0.97932194776067E-04
   134 0.75841394813539E-04
   135 0.16793613355844E-05
   136 -.49370806605755E-06
   137 -.13567589010670E-05
   138 -.24272388573488E-05
   139 -.41856685605677E-05
   140 0.24444698024728E-05
   141 0.17413919425777E-06
   142 0.48480474386145E-05
   143 -.62418672335455E-06
   144 -.10319672447597E-04
   145 0.84724296180172E-05
   146 0.34093887417708E-04
   147 -.28479326629413E-03
   148 0.14788674067487E-02
   149 0.22977647317048E-02
   150 0.42770364228052E-04
   151 -.82391300755119E-04
   152 0.20211581701593E-05
   153 -.54486384260764E-03
   154 0.10491922153846E-02
   155 -.21277681117431E-03
   156 -.33449482381297E-03
   157 0.68537190970430E-03
   158 -.15622288156175E-03
   159 0.76296800444680E-05
   160 -.10204514379439E-04
   161 0.25748343349711E-05
   162 0.41739105225513E-05
   163 0.84518601248889E-05
   164 -.48569435712414E-05
   165 -.82831033544803E-04
   166 0.13328916489277E-03
   167 -.50458131347964E-04
   168 -.10470275917828E-03
   169 -.29786109094278E-04
   170 -.24727208973645E-04
   171 0.89265828808372E-06
   172 -.31749031607665E-05
   173 -.18231061431897E-05
   174 -.22375601464098E-05
   175 -.25858845381641E-05
   176 0.10365856447812E-05
   177 0.10399333787095E-05
   178 0.68454641118357E-05
   179 0.14093679150407E-05
   180 -.56248977486239E-05
   181 0.43511193921140E+00
   182 0.63944559826771E+00
   183 0.37106779562683E-01
   184 -.30912347952318E-01
   185 0.13829018948779E-01
   186 0.16159323837793E-02
   187 -.10162770388820E-02
   188 0.93273643016983E-03
   189 -.35192914392138E-02
   190 0.42828815653840E-02
   191 -.25205783061529E-02
   192 0.11007897470317E-02
   193 -.10279232920469E-02
   194 0.10369309939853E-02
   195 -.91569965809469E-05
   196 0.10820559149938E-03
   197 -.99048594918436E-04
   198 0.36757298210347E-05
   199 0.55537844734301E-04
   200 -.49210685518281E-04
   201 0.15156028106570E-03
   202 -.74601847827489E-03
   203 0.59445819720918E-03
   204 0.10714645986238E-03
   205 -.32906575137184E-03
   206 0.38797788254463E-03
   207 0.26897128434986E-04
   208 0.53466399637573E-04
   209 0.48390405537634E-04
   210 -.63695284558933E-04
   211 -.62838406519423E-04
   212 -.10332248639808E-04
   213 0.27609000010829E-04
   214 -.88942959416462E-05
   215 -.54590293104751E-04
   216 -.18026344329810E-06
   217 0.92679469790021E-04
   218 0.10834693981309E-02
   219 0.30144508722290E-03
   220 -.88102221858156E-05
   221 0.15744852392289E-03
   222 -.31388922221423E-04
   223 -.40510284903759E-04
   224 -.24334101636681E-03
   225 0.86946069020155E-04
   226 0.19332114584777E-04
   227 0.16630849241866E-03
   228 -.45816862489781E-04
   229 -.83476687493919E-04
   230 -.31787937333789E-04
   231 0.19784821868478E-03
   232 -.28701000639422E-04
   233 0.13395185975028E-03
   234 -.99201199857938E-04
   235 0.40183612538629E-04
   236 0.16453118012007E-02