[Molden Format]
[Title]
                                                                                
[Atoms] AU
 c     1    6 0.92586589582319E+00 0.24247891351966E+01 -.88004875969190E-01
 c     2    6 0.25599378636087E+01 0.49271037352613E+00 0.21848858004020E-01
 c     3    6 0.16962797773978E+01 -.21286649919947E+01 0.11888131140443E+00
 o     4    8 0.30314621130125E+01 -.39802175192136E+01 0.21886121230117E+00
 n     5    7 -.94830325697366E+00 -.23107752476166E+01 0.83604196726320E-01
 c     6    6 -.27191056380629E+01 -.38543682065473E+00 -.28557583920920E-01
 o     7    8 -.49794616037481E+01 -.73548411109681E+00 -.51240081453900E-01
 n     8    7 -.16388571180997E+01 0.19969174636444E+01 -.11275023563115E+00
 f     9    9 0.50539380678000E+01 0.89049853409218E+00 0.46238506519950E-01
 h    10    1 0.15476465435157E+01 0.43685987136025E+01 -.16077324586689E+00
 h    11    1 -.16633107035987E+01 -.40818569200368E+01 0.14692541479488E+00
 h    12    1 -.28660919406749E+01 0.34489232802775E+01 -.19503347690883E+00
[GTO]
    1 0
 s    6 1.00
 0.13575349682000E+05 0.60645503603591E-03
 0.20352333680000E+04 0.46979088884982E-02
 0.46322562359000E+03 0.24332477647552E-01
 0.13120019598000E+03 0.97399968307759E-01
 0.42853015891000E+02 0.30195584253780E+00
 0.15584185766000E+02 0.66233609137875E+00
 s    2 1.00
 0.62067138508000E+01 0.65595308539952E+00
 0.25764896527000E+01 0.37585633285142E+00
 s    1 1.00
 0.57696339419000E+00 0.10000000000000E+01
 s    1 1.00
 0.22972831358000E+00 0.10000000000000E+01
 s    1 1.00
 0.95164440028000E-01 0.10000000000000E+01
 p    4 1.00
 0.34697232244000E+02 0.11327220003114E-01
 0.79582622826000E+01 0.76169659202087E-01
 0.23780826883000E+01 0.30192252202676E+00
 0.81433208183000E+00 0.72785027349547E+00
 p    1 1.00
 0.28887547253000E+00 0.10000000000000E+01
 p    1 1.00
 0.10056823671000E+00 0.10000000000000E+01
 d    1 1.00
 0.10970000000000E+01 0.10000000000000E+01
 d    1 1.00
 0.31800000000000E+00 0.10000000000000E+01
 f    1 1.00
 0.76100000000000E+00 0.10000000000000E+01
 
    2 0
 s    6 1.00
 0.13575349682000E+05 0.60645503603591E-03
 0.20352333680000E+04 0.46979088884982E-02
 0.46322562359000E+03 0.24332477647552E-01
 0.13120019598000E+03 0.97399968307759E-01
 0.42853015891000E+02 0.30195584253780E+00
 0.15584185766000E+02 0.66233609137875E+00
 s    2 1.00
 0.62067138508000E+01 0.65595308539952E+00
 0.25764896527000E+01 0.37585633285142E+00
 s    1 1.00
 0.57696339419000E+00 0.10000000000000E+01
 s    1 1.00
 0.22972831358000E+00 0.10000000000000E+01
 s    1 1.00
 0.95164440028000E-01 0.10000000000000E+01
 p    4 1.00
 0.34697232244000E+02 0.11327220003114E-01
 0.79582622826000E+01 0.76169659202087E-01
 0.23780826883000E+01 0.30192252202676E+00
 0.81433208183000E+00 0.72785027349547E+00
 p    1 1.00
 0.28887547253000E+00 0.10000000000000E+01
 p    1 1.00
 0.10056823671000E+00 0.10000000000000E+01
 d    1 1.00
 0.10970000000000E+01 0.10000000000000E+01
 d    1 1.00
 0.31800000000000E+00 0.10000000000000E+01
 f    1 1.00
 0.76100000000000E+00 0.10000000000000E+01
 
    3 0
 s    6 1.00
 0.13575349682000E+05 0.60645503603591E-03
 0.20352333680000E+04 0.46979088884982E-02
 0.46322562359000E+03 0.24332477647552E-01
 0.13120019598000E+03 0.97399968307759E-01
 0.42853015891000E+02 0.30195584253780E+00
 0.15584185766000E+02 0.66233609137875E+00
 s    2 1.00
 0.62067138508000E+01 0.65595308539952E+00
 0.25764896527000E+01 0.37585633285142E+00
 s    1 1.00
 0.57696339419000E+00 0.10000000000000E+01
 s    1 1.00
 0.22972831358000E+00 0.10000000000000E+01
 s    1 1.00
 0.95164440028000E-01 0.10000000000000E+01
 p    4 1.00
 0.34697232244000E+02 0.11327220003114E-01
 0.79582622826000E+01 0.76169659202087E-01
 0.23780826883000E+01 0.30192252202676E+00
 0.81433208183000E+00 0.72785027349547E+00
 p    1 1.00
 0.28887547253000E+00 0.10000000000000E+01
 p    1 1.00
 0.10056823671000E+00 0.10000000000000E+01
 d    1 1.00
 0.10970000000000E+01 0.10000000000000E+01
 d    1 1.00
 0.31800000000000E+00 0.10000000000000E+01
 f    1 1.00
 0.76100000000000E+00 0.10000000000000E+01
 
    4 0
 s    6 1.00
 0.27032382631000E+05 0.57227335211155E-03
 0.40523871392000E+04 0.44353233492995E-02
 0.92232722710000E+03 0.23020107706038E-01
 0.26124070989000E+03 0.92822490667928E-01
 0.85354641351000E+02 0.29378500009671E+00
 0.31035035245000E+02 0.67401604501641E+00
 s    2 1.00
 0.12260860728000E+02 0.63839937025506E+00
 0.49987076005000E+01 0.39534587125718E+00
 s    1 1.00
 0.11703108158000E+01 0.10000000000000E+01
 s    1 1.00
 0.46474740994000E+00 0.10000000000000E+01
 s    1 1.00
 0.18504536357000E+00 0.10000000000000E+01
 p    4 1.00
 0.63274954801000E+02 0.12018332222616E-01
 0.14627049379000E+02 0.83005421790056E-01
 0.44501223456000E+01 0.31991743925964E+00
 0.15275799647000E+01 0.70715542916104E+00
 p    1 1.00
 0.52935117943000E+00 0.10000000000000E+01
 p    1 1.00
 0.17478421270000E+00 0.10000000000000E+01
 d    1 1.00
 0.23140000000000E+01 0.10000000000000E+01
 d    1 1.00
 0.64500000000000E+00 0.10000000000000E+01
 f    1 1.00
 0.14280000000000E+01 0.10000000000000E+01
 
    5 0
 s    6 1.00
 0.19730800647000E+05 0.58626402628763E-03
 0.29578958745000E+04 0.45428820586397E-02
 0.67322133595000E+03 0.23558413450084E-01
 0.19068249494000E+03 0.94709193292923E-01
 0.62295441898000E+02 0.29719784913376E+00
 0.22654161182000E+02 0.66916246895232E+00
 s    2 1.00
 0.89791477428000E+01 0.64596683630063E+00
 0.36863002370000E+01 0.38700574393705E+00
 s    1 1.00
 0.84660076805000E+00 0.10000000000000E+01
 s    1 1.00
 0.33647133771000E+00 0.10000000000000E+01
 s    1 1.00
 0.13647653675000E+00 0.10000000000000E+01
 p    4 1.00
 0.49200380510000E+02 0.11448825101764E-01
 0.11346790537000E+02 0.78422337970864E-01
 0.34273972411000E+01 0.30818094738830E+00
 0.11785525134000E+01 0.72027196368413E+00
 p    1 1.00
 0.41642204972000E+00 0.10000000000000E+01
 p    1 1.00
 0.14260826011000E+00 0.10000000000000E+01
 d    1 1.00
 0.16540000000000E+01 0.10000000000000E+01
 d    1 1.00
 0.46900000000000E+00 0.10000000000000E+01
 f    1 1.00
 0.10930000000000E+01 0.10000000000000E+01
 
    6 0
 s    6 1.00
 0.13575349682000E+05 0.60645503603591E-03
 0.20352333680000E+04 0.46979088884982E-02
 0.46322562359000E+03 0.24332477647552E-01
 0.13120019598000E+03 0.97399968307759E-01
 0.42853015891000E+02 0.30195584253780E+00
 0.15584185766000E+02 0.66233609137875E+00
 s    2 1.00
 0.62067138508000E+01 0.65595308539952E+00
 0.25764896527000E+01 0.37585633285142E+00
 s    1 1.00
 0.57696339419000E+00 0.10000000000000E+01
 s    1 1.00
 0.22972831358000E+00 0.10000000000000E+01
 s    1 1.00
 0.95164440028000E-01 0.10000000000000E+01
 p    4 1.00
 0.34697232244000E+02 0.11327220003114E-01
 0.79582622826000E+01 0.76169659202087E-01
 0.23780826883000E+01 0.30192252202676E+00
 0.81433208183000E+00 0.72785027349547E+00
 p    1 1.00
 0.28887547253000E+00 0.10000000000000E+01
 p    1 1.00
 0.10056823671000E+00 0.10000000000000E+01
 d    1 1.00
 0.10970000000000E+01 0.10000000000000E+01
 d    1 1.00
 0.31800000000000E+00 0.10000000000000E+01
 f    1 1.00
 0.76100000000000E+00 0.10000000000000E+01
 
    7 0
 s    6 1.00
 0.27032382631000E+05 0.57227335211155E-03
 0.40523871392000E+04 0.44353233492995E-02
 0.92232722710000E+03 0.23020107706038E-01
 0.26124070989000E+03 0.92822490667928E-01
 0.85354641351000E+02 0.29378500009671E+00
 0.31035035245000E+02 0.67401604501641E+00
 s    2 1.00
 0.12260860728000E+02 0.63839937025506E+00
 0.49987076005000E+01 0.39534587125718E+00
 s    1 1.00
 0.11703108158000E+01 0.10000000000000E+01
 s    1 1.00
 0.46474740994000E+00 0.10000000000000E+01
 s    1 1.00
 0.18504536357000E+00 0.10000000000000E+01
 p    4 1.00
 0.63274954801000E+02 0.12018332222616E-01
 0.14627049379000E+02 0.83005421790056E-01
 0.44501223456000E+01 0.31991743925964E+00
 0.15275799647000E+01 0.70715542916104E+00
 p    1 1.00
 0.52935117943000E+00 0.10000000000000E+01
 p    1 1.00
 0.17478421270000E+00 0.10000000000000E+01
 d    1 1.00
 0.23140000000000E+01 0.10000000000000E+01
 d    1 1.00
 0.64500000000000E+00 0.10000000000000E+01
 f    1 1.00
 0.14280000000000E+01 0.10000000000000E+01
 
    8 0
 s    6 1.00
 0.19730800647000E+05 0.58626402628763E-03
 0.29578958745000E+04 0.45428820586397E-02
 0.67322133595000E+03 0.23558413450084E-01
 0.19068249494000E+03 0.94709193292923E-01
 0.62295441898000E+02 0.29719784913376E+00
 0.22654161182000E+02 0.66916246895232E+00
 s    2 1.00
 0.89791477428000E+01 0.64596683630063E+00
 0.36863002370000E+01 0.38700574393705E+00
 s    1 1.00
 0.84660076805000E+00 0.10000000000000E+01
 s    1 1.00
 0.33647133771000E+00 0.10000000000000E+01
 s    1 1.00
 0.13647653675000E+00 0.10000000000000E+01
 p    4 1.00
 0.49200380510000E+02 0.11448825101764E-01
 0.11346790537000E+02 0.78422337970864E-01
 0.34273972411000E+01 0.30818094738830E+00
 0.11785525134000E+01 0.72027196368413E+00
 p    1 1.00
 0.41642204972000E+00 0.10000000000000E+01
 p    1 1.00
 0.14260826011000E+00 0.10000000000000E+01
 d    1 1.00
 0.16540000000000E+01 0.10000000000000E+01
 d    1 1.00
 0.46900000000000E+00 0.10000000000000E+01
 f    1 1.00
 0.10930000000000E+01 0.10000000000000E+01
 
    9 0
 s    6 1.00
 0.35479100441000E+05 0.56184991109229E-03
 0.53184728983000E+04 0.43551973805325E-02
 0.12104810975000E+04 0.22618247148987E-01
 0.34285518140000E+03 0.91403055140764E-01
 0.11201943181000E+03 0.29116870685186E+00
 0.40714740248000E+02 0.67772708559005E+00
 s    2 1.00
 0.16039678111000E+02 0.63296417876535E+00
 0.65038186740000E+01 0.40136475732985E+00
 s    1 1.00
 0.15440477509000E+01 0.10000000000000E+01
 s    1 1.00
 0.61223452862000E+00 0.10000000000000E+01
 s    1 1.00
 0.24027979698000E+00 0.10000000000000E+01
 p    4 1.00
 0.80233900483000E+02 0.12321345139744E-01
 0.18594010743000E+02 0.85713395350864E-01
 0.56867902653000E+01 0.32633105504380E+00
 0.19511006294000E+01 0.69971114642281E+00
 p    1 1.00
 0.66970211298000E+00 0.10000000000000E+01
 p    1 1.00
 0.21651300410000E+00 0.10000000000000E+01
 d    1 1.00
 0.31070000000000E+01 0.10000000000000E+01
 d    1 1.00
 0.85500000000000E+00 0.10000000000000E+01
 f    1 1.00
 0.19170000000000E+01 0.10000000000000E+01
 
   10 0
 s    3 1.00
 0.34061341000000E+02 0.25439307208879E-01
 0.51235746000000E+01 0.19008594890375E+00
 0.11646626000000E+01 0.85244113011042E+00
 s    1 1.00
 0.32723041000000E+00 0.10000000000000E+01
 s    1 1.00
 0.10307241000000E+00 0.10000000000000E+01
 p    1 1.00
 0.80000000000000E+00 0.10000000000000E+01
 
   11 0
 s    3 1.00
 0.34061341000000E+02 0.25439307208879E-01
 0.51235746000000E+01 0.19008594890375E+00
 0.11646626000000E+01 0.85244113011042E+00
 s    1 1.00
 0.32723041000000E+00 0.10000000000000E+01
 s    1 1.00
 0.10307241000000E+00 0.10000000000000E+01
 p    1 1.00
 0.80000000000000E+00 0.10000000000000E+01
 
   12 0
 s    3 1.00
 0.34061341000000E+02 0.25439307208879E-01
 0.51235746000000E+01 0.19008594890375E+00
 0.11646626000000E+01 0.85244113011042E+00
 s    1 1.00
 0.32723041000000E+00 0.10000000000000E+01
 s    1 1.00
 0.10307241000000E+00 0.10000000000000E+01
 p    1 1.00
 0.80000000000000E+00 0.10000000000000E+01
 
[MO]
 Sym=     1a   
 Ene= -.24715163229001E+02
 Spin= Alpha
 Occup= 2.000000
     1 0.88774509608799E-05
     2 -.38394081019862E-04
     3 0.77675022546289E-03
     4 0.56625927115291E-03
     5 -.75186255228287E-02
     6 -.87961097681491E-04
     7 0.14164120572482E-04
     8 -.20394844707522E-05
     9 0.55781466283445E-02
    10 -.13991560935601E-02
    11 0.15280864339604E-03
    12 0.19762358730767E-02
    13 0.29929814179219E-02
    14 -.95447340933871E-04
    15 0.16868520196913E-04
    16 -.15277828626096E-04
    17 -.15906915708176E-05
    18 0.22558192192729E-04
    19 -.63620817062711E-06
    20 0.10115783375421E-05
    21 -.22798361858934E-03
    22 -.84154823853312E-04
    23 0.31213844244265E-03
    24 -.12909092198568E-02
    25 0.44749595424197E-04
    26 -.17677246425082E-05
    27 0.63651604230277E-04
    28 -.45760633648961E-05
    29 -.93947324292322E-06
    30 -.51299008144358E-04
    31 0.96319391490020E-05
    32 0.21665154430596E-05
    33 -.34098580217130E-04
    34 -.34925058970496E-05
    35 -.90607982252855E-06
    36 0.11199485240981E-05
    37 0.53555786664072E-04
    38 -.24374880914334E-03
    39 -.13440920526493E-03
    40 -.62757793897699E-02
    41 0.89166527132623E-02
    42 -.10656613493315E-03
    43 -.30294139843047E-04
    44 -.51538643979815E-06
    45 0.71900034249244E-02
    46 0.13372322884182E-02
    47 0.63428440068935E-04
    48 -.89030861700864E-02
    49 -.10326134328448E-02
    50 -.10376347767324E-03
    51 0.21693916310191E-03
    52 -.77676534650374E-04
    53 -.13926262845153E-03
    54 0.62570387944760E-04
    55 0.41481748148290E-05
    56 -.20114713185970E-05
    57 0.32513005600080E-02
    58 -.27620793458995E-02
    59 -.48922121410858E-03
    60 0.98563425216377E-03
    61 0.29322942873416E-04
    62 0.12854463020480E-03
    63 0.22275134401418E-03
    64 -.38271744115426E-04
    65 -.40569707669408E-05
    66 -.95343732845463E-04
    67 0.88154746663167E-04
    68 0.79407312467654E-05
    69 -.20350855553162E-03
    70 -.36807813787425E-04
    71 -.24977337962000E-05
    72 -.29495878340979E-05
    73 0.38898629227940E-05
    74 -.16748507773348E-04
    75 0.70871052702288E-03
    76 0.76490920405049E-04
    77 -.59607099731430E-02
    78 -.10979439358130E-03
    79 -.62965894717027E-04
    80 0.87082943365033E-06
    81 0.32450746596154E-02
    82 0.43687803220655E-02
    83 -.13181400075964E-03
    84 0.27389078679528E-02
    85 -.23418851812769E-02
    86 0.14434742657407E-03
    87 0.16087408038145E-04
    88 -.15652055976230E-04
    89 -.43535206191428E-06
    90 0.28716458771844E-04
    91 -.89510335634392E-06
    92 0.12161692172688E-05
    93 -.12109059640924E-02
    94 0.79064135244670E-03
    95 0.42026461164570E-03
    96 0.14624249590544E-02
    97 -.92575034464527E-04
    98 0.59462751294479E-05
    99 0.37056543809635E-04
   100 -.22257708866410E-04
   101 0.19667490748728E-05
   102 -.33301155101483E-04
   103 0.56799615579890E-04
   104 -.10905479087749E-05
   105 -.16415415480242E-04
   106 -.26937765550674E-04
   107 -.15481228668854E-05
   108 0.24002023920069E-05
   109 -.71721636282809E-05
   110 0.43726233014997E-04
   111 -.52228273453618E-03
   112 0.25545313863699E-02
   113 -.45986035039139E-03
   114 -.20993744184468E-04
   115 -.73490772355869E-04
   116 0.27397396425068E-05
   117 -.24938128696197E-03
   118 0.10562328551719E-02
   119 -.48569210627554E-04
   120 -.73207059669281E-05
   121 0.33958448427868E-03
   122 -.14568369541221E-04
   123 0.15904632813347E-04
   124 -.12926780117440E-04
   125 -.29778526959072E-05
   126 -.18075965400412E-04
   127 0.11218103527190E-05
   128 0.18483355403865E-06
   129 -.11979434604616E-03
   130 0.16651495072853E-03
   131 -.46720604682362E-04
   132 -.10679607459189E-04
   133 -.92249429300535E-06
   134 -.10563040783526E-04
   135 0.44273497857300E-05
   136 0.48624331598931E-05
   137 -.73275594809085E-07
   138 -.24970141651323E-05
   139 -.59777792862432E-05
   140 0.45849205084733E-06
   141 -.34428988835045E-05
   142 -.54585936269884E-06
   143 -.36018252419643E-06
   144 -.14756991683688E-06
   145 -.45202367018601E-05
   146 0.24698716830278E-04
   147 -.59076770306361E-03
   148 0.32384165478182E-02
   149 0.13652747042327E-02
   150 -.11663019627258E-03
   151 -.29218349567386E-04
   152 -.65358919762345E-06
   153 0.17809287250125E-02
   154 0.36553356482919E-03
   155 0.13447329743178E-04
   156 0.50064562963249E-03
   157 -.94559618652181E-03
   158 0.48169626777925E-04
   159 -.73899209240432E-05
   160 0.24025524159213E-04
   161 -.16635603235170E-04
   162 -.10952552902582E-04
   163 0.64065564250861E-06
   164 -.21666609679735E-05
   165 0.38280310072021E-03
   166 -.26090154556971E-03
   167 -.12190155515049E-03
   168 0.19904183246188E-03
   169 0.10703922445465E-05
   170 0.10047034966727E-04
   171 0.13790692587484E-04
   172 -.78392965286702E-05
   173 -.58633145041809E-06
   174 -.15415194642462E-04
   175 0.55266496389518E-05
   176 0.16429130723407E-06
   177 -.30869610069888E-05
   178 0.49908703213790E-05
   179 0.62235488105447E-06
   180 0.60991902949801E-06
   181 0.48133618691478E-05
   182 -.22301322065785E-04
   183 0.18675863150053E-03
   184 0.55604588718972E-04
   185 0.15794391956479E-02
   186 0.20517105000591E-04
   187 0.98240088329407E-05
   188 -.77564025446708E-07
   189 0.56201094988697E-05
   190 -.13375715340369E-03
   191 0.59220377480814E-05
   192 0.67657927051025E-03
   193 0.53114470382535E-04
   194 0.87529315235005E-05
   195 -.53792835818152E-05
   196 0.14831736800544E-04
   197 -.94524532187287E-05
   198 -.44016753706392E-05
   199 0.28425831504025E-06
   200 -.12735378105382E-05
   201 0.14962974064889E-03
   202 -.18149343730360E-03
   203 0.31863696654702E-04
   204 -.83579256957913E-05
   205 0.25749326218350E-05
   206 0.10315856263564E-04
   207 0.25467363088247E-06
   208 0.17805636280707E-06
   209 -.26320902936769E-06
   210 -.63047145920917E-06
   211 -.30559875719211E-05
   212 0.13739131468562E-06
   213 0.28879092877123E-06
   214 0.28170998932833E-05
   215 0.21574065448912E-06
   216 -.86432608241498E-07
   217 -.24866352487597E-06
   218 0.14427494710889E-05
   219 -.26949442984276E-05
   220 -.10019122078233E-03
   221 -.42120904464112E-04
   222 -.14620162875081E-05
   223 0.37122716378930E-05
   224 -.16254690860885E-06
   225 -.41218422753872E-04
   226 -.29405477920448E-04
   227 0.47339202520385E-06
   228 -.87133463907755E-04
   229 0.30620321903164E-05
   230 -.14854675336413E-05
   231 0.19514688864437E-05
   232 -.35269466148359E-05
   233 0.15754777283921E-05
   234 0.17966727464843E-05
   235 -.66774863347709E-07
   236 0.28277253962689E-06
   237 -.11814162609273E-04
   238 0.18075694203547E-04
   239 -.62615315942732E-05
   240 -.91384638861557E-05
   241 0.26429489657980E-06
   242 -.13621434234737E-05
   243 -.98376146182955E-06
   244 0.67507558576794E-06
   245 0.64260910423977E-09
   246 0.21575983459270E-05
   247 -.58062003236094E-06
   248 0.29802968973257E-07
   249 -.83774384454970E-06
   250 -.32508890747562E-06
   251 -.30665119557281E-07
   252 -.15538678350905E-06
   253 -.47713071039768E-05
   254 0.26135238013332E-04
   255 -.66292231477104E-03
   256 0.35234204136751E-02
   257 0.21993529438149E-02
   258 -.12085071810564E-03
   259 0.72523831871628E-05
   260 -.23751654379174E-05
   261 0.18691065929731E-02
   262 -.46884667084681E-04
   263 0.33604008522674E-04
   264 0.61305450898353E-03
   265 0.82842514880742E-03
   266 -.24754663752717E-04
   267 -.51533785136922E-05
   268 0.20217608270178E-04
   269 -.15064229756486E-04
   270 0.34876083862921E-05
   271 0.33910414491212E-07
   272 -.16816088963849E-05
   273 0.43728696636951E-03
   274 -.27304625069633E-03
   275 -.16424071567318E-03
   276 0.11719092601497E-05
   277 0.11639949517203E-04
   278 0.53411670182845E-05
   279 0.15881285693418E-04
   280 -.38960671214812E-06
   281 0.31347170469307E-06
   282 -.18993377040081E-04
   283 0.47284923753314E-05
   284 0.23853746395076E-06
   285 -.23136035882663E-05
   286 -.42057801196193E-05
   287 -.65910388838062E-06
   288 0.99972510584633E-06
   289 0.42534518564821E+00
   290 0.64886256548909E+00
   291 0.34724379985232E-01
   292 -.23959187109464E-01
   293 0.83820361225284E-02
   294 -.15479057182832E-02
   295 -.22242909861935E-03
   296 -.15917695720488E-04
   297 0.41108926489411E-02
   298 0.67315938893993E-03
   299 0.39228631884007E-04
   300 0.62412397621085E-04
   301 0.91003398145492E-05
   302 0.80248609510697E-06
   303 0.12285668921705E-03
   304 -.79210213352213E-04
   305 -.43646475864834E-04
   306 0.41655864518248E-04
   307 0.12912628143128E-05
   308 0.23696944366189E-05
   309 -.61749401724782E-03
   310 0.36282741747354E-03
   311 0.25466659977428E-03
   312 -.19835142235626E-03
   313 -.81756293566948E-05
   314 -.86085729755564E-05
   315 0.34278777377612E-04
   316 -.10442874831689E-04
   317 -.41892003643560E-06
   318 -.27294476018903E-04
   319 0.17089520653950E-04
   320 0.68306986270135E-06
   321 -.18695329822251E-04
   322 -.30789338514436E-05
   323 -.12102965553733E-06
   324 0.83187753453762E-06
   325 0.16274814676259E-03
   326 0.58804216461300E-03
   327 -.71895927752041E-03
   328 0.57817600135080E-04
   329 -.22155786274761E-03
   330 0.10370756701758E-04
   331 0.77490933500377E-04
   332 -.49703234891190E-03
   333 -.10391069626392E-03
   334 0.99970851975946E-05
   335 -.70374756811655E-04
   336 0.31446940496407E-05
   337 0.52142965884085E-04
   338 -.48048484631554E-03
   339 0.84844346870691E-04
   340 -.11923705870489E-04
   341 0.72531456855175E-04
   342 -.32826098135866E-05
 Sym=     2a   
 Ene= -.19121470528013E+02
 Spin= Alpha
 Occup= 2.000000
     1 0.62727640295433E-05
     2 -.31022556464448E-04
     3 -.33783315036219E-03
     4 0.79394382652091E-02
     5 0.74021193147434E-02
     6 -.29148255202141E-04
     7 0.18201121712877E-04
     8 -.14072979174500E-05
     9 0.34481378203764E-02
    10 -.48941999109498E-02
    11 0.26784121317441E-03
    12 0.20305321004033E-02
    13 -.10818774000497E-02
    14 0.81052942911261E-04
    15 -.19629016048795E-04
    16 0.55013900950309E-04
    17 -.35384884901515E-04
    18 -.46516010002533E-04
    19 0.22598799476526E-05
    20 -.52044312637685E-05
    21 -.40530158708263E-03
    22 0.68972257621707E-03
    23 -.28442098913445E-03
    24 -.87102003192467E-03
    25 0.35163642946650E-04
    26 -.63289553236677E-04
    27 0.58724533418885E-05
    28 -.23034111008657E-04
    29 -.25412006065870E-05
    30 0.10843762604513E-04
    31 0.12055168428074E-04
    32 0.23276463415886E-06
    33 -.18722485524808E-04
    34 0.18848334381906E-04
    35 0.31766137463165E-05
    36 -.16234151564710E-05
    37 0.21752516688613E-04
    38 -.10886178047205E-03
    39 0.12213913765391E-02
    40 -.42348938572168E-02
    41 -.88021262149120E-02
    42 -.10524129378493E-03
    43 0.78145128560824E-04
    44 -.50697514758582E-05
    45 0.32614740587453E-02
    46 -.76880344294645E-02
    47 0.38094357774722E-03
    48 0.53225439430762E-02
    49 -.40912819782868E-02
    50 0.26144677190464E-03
    51 0.39354381281200E-04
    52 0.29793461513202E-04
    53 -.69147842794402E-04
    54 -.31814049253860E-04
    55 0.33660625211327E-05
    56 -.53650350908374E-05
    57 -.16546825161899E-02
    58 0.10484799465467E-02
    59 0.60620256964312E-03
    60 0.13718868344270E-02
    61 -.10126946843015E-03
    62 0.13756470645289E-05
    63 -.31357244108934E-07
    64 -.25398464325860E-04
    65 -.18837609267995E-05
    66 0.26556822713415E-04
    67 0.24636767417305E-04
    68 -.17839983138850E-06
    69 -.26514752555766E-04
    70 0.94388482367305E-05
    71 0.27057303227975E-05
    72 -.23786704325064E-05
    73 0.40640689871804E-04
    74 -.24789347340203E-03
    75 0.47844955860391E-03
    76 0.32481491566237E-02
    77 0.19447697215881E-02
    78 0.50401450698402E-03
    79 -.56178116748657E-03
    80 0.31915675774159E-04
    81 0.46440080953261E-02
    82 -.11239115699178E-01
    83 0.55099830920705E-03
    84 -.87222546008332E-02
    85 0.63633228059039E-02
    86 -.41162966618464E-03
    87 0.17447455663400E-04
    88 0.94476306694888E-04
    89 -.11192376235829E-03
    90 -.16983860417693E-03
    91 0.96080046288615E-05
    92 -.12829392473051E-04
    93 0.49847675028446E-05
    94 0.11270440732459E-02
    95 -.11320288407488E-02
    96 -.38645185646755E-02
    97 0.18510226472630E-03
    98 -.17346865691584E-03
    99 0.67977105203301E-04
   100 -.53870392905158E-04
   101 -.97850263415745E-05
   102 -.36208919918076E-04
   103 -.96117901470616E-05
   104 0.36611573613540E-05
   105 -.54991936970865E-04
   106 0.81886506453396E-04
   107 0.94668330754780E-05
   108 -.26329886426410E-05
   109 0.43509003074638E+00
   110 0.63946554486672E+00
   111 0.37061569533043E-01
   112 -.33831956865382E-01
   113 0.12399018042710E-01
   114 -.14076116069566E-02
   115 0.19025890054907E-02
   116 -.10335337414335E-03
   117 0.44128880354997E-02
   118 -.62894250099372E-02
   119 0.33756465474538E-03
   120 0.28012689724152E-03
   121 0.25007467288297E-03
   122 -.57129123263962E-05
   123 -.15742251703272E-04
   124 0.81582581061506E-04
   125 -.65840329358234E-04
   126 -.17675800301377E-03
   127 0.87667010105223E-05
   128 -.98898696100581E-05
   129 0.49344732899438E-04
   130 -.48020943968393E-03
   131 0.43086470678449E-03
   132 0.90089931156881E-03
   133 -.45517722737145E-04
   134 0.59148147913170E-04
   135 -.19559932432282E-04
   136 -.50033575604984E-05
   137 -.31352387753507E-05
   138 0.42966395425365E-04
   139 -.19706665209670E-04
   140 0.90776787827922E-06
   141 -.16723992293034E-04
   142 0.26419373782278E-04
   143 0.32985963381472E-05
   144 -.37706699594558E-05
   145 0.49098113865437E-05
   146 -.27038791715824E-04
   147 -.66553174979205E-04
   148 0.24272495586058E-02
   149 -.54272361840342E-02
   150 0.81266651877526E-04
   151 0.33991795407836E-04
   152 -.82305037604682E-07
   153 0.45587574201859E-03
   154 -.80444895949813E-04
   155 0.10312148753280E-04
   156 -.14881222350955E-02
   157 0.11517397434716E-04
   158 -.25495178226998E-04
   159 0.42541063510265E-04
   160 0.34104497588058E-04
   161 -.76645561098323E-04
   162 0.97487111591601E-06
   163 0.21888284110608E-05
   164 -.53609382450403E-05
   165 0.11972849165290E-03
   166 -.34707078538190E-03
   167 0.22734229372900E-03
   168 -.33197370390952E-03
   169 0.12267431313209E-04
   170 0.22364634848632E-04
   171 -.44739770674098E-05
   172 0.40751397641198E-05
   173 0.20541985785795E-05
   174 -.26895878415758E-04
   175 0.33470091007972E-05
   176 -.13152334652025E-05
   177 0.32898348527260E-04
   178 -.88143828190279E-05
   179 -.14407631313899E-05
   180 0.31858826138823E-05
   181 0.31829810612684E-05
   182 -.16965009855392E-04
   183 0.24077059846355E-03
   184 0.19536024671346E-07
   185 -.20881890221747E-02
   186 0.56876220236553E-04
   187 -.40482816537962E-04
   188 0.25899375105509E-05
   189 -.75300091645521E-04
   190 0.67523453076750E-03
   191 -.29472335951337E-04
   192 -.10890822865726E-02
   193 0.66241993823858E-03
   194 -.46529398530917E-04
   195 0.45924326183072E-04
   196 -.28076278926565E-04
   197 -.17848047256508E-04
   198 0.12310103272118E-05
   199 0.11711129711344E-05
   200 0.52749688363355E-06
   201 -.17581066819170E-03
   202 0.24659444876435E-04
   203 0.15115122331526E-03
   204 0.35022009771672E-03
   205 -.21099608849337E-04
   206 0.11934495578036E-04
   207 0.23390022082049E-04
   208 0.95791726659300E-05
   209 0.10013437800604E-05
   210 -.34685459127207E-04
   211 -.33947017659761E-05
   212 0.60377835600831E-06
   213 0.33044515047972E-05
   214 -.94571069835604E-05
   215 -.19472220126453E-05
   216 0.19673682481628E-05
   217 0.10075444677736E-03
   218 0.14342796945013E-03
   219 0.34602917937945E-04
   220 0.57611929627842E-04
   221 0.12845751415811E-03
   222 0.23988963381264E-04
   223 -.26220381818116E-04
   224 0.15463669910909E-05
   225 -.18033834602282E-04
   226 0.20552982489488E-03
   227 -.92145219072530E-05
   228 0.20996309183677E-03
   229 -.14216233304818E-03
   230 0.96904588880601E-05
   231 0.32709757412298E-05
   232 -.22134995850895E-05
   233 -.10574761561404E-05
   234 -.28225998949237E-05
   235 0.20655420887748E-06
   236 0.49809042511911E-08
   237 -.16471070713479E-04
   238 0.16016093932549E-04
   239 0.45497678093010E-06
   240 0.46892264504270E-04
   241 -.23762992854073E-05
   242 0.22268302766943E-07
   243 -.46102535959409E-05
   244 -.22179526869542E-05
   245 0.15844040620672E-06
   246 0.33981876030775E-05
   247 0.34791757361963E-05
   248 -.35504470947941E-06
   249 0.27871166573446E-05
   250 -.50347994885157E-06
   251 0.14247459828287E-06
   252 0.42227356536423E-07
   253 -.76526312836533E-06
   254 0.48230038761183E-05
   255 -.15073052322904E-03
   256 0.96694004130263E-03
   257 -.19834588831792E-03
   258 -.33614853601054E-04
   259 -.19940362950454E-04
   260 0.28834779022207E-06
   261 0.59796528139259E-03
   262 0.35993593138824E-03
   263 -.53450895693433E-05
   264 -.40963087310945E-03
   265 0.72096272780735E-03
   266 -.37742725435611E-04
   267 -.39049840829647E-06
   268 0.14231549148446E-04
   269 -.13841050740149E-04
   270 0.16069752920232E-07
   271 0.27158327550284E-06
   272 -.14021203051985E-05
   273 0.10282518057571E-03
   274 -.97304125513992E-04
   275 -.55210550617162E-05
   276 0.41984645451244E-05
   277 0.18740544430183E-05
   278 0.46955438787406E-05
   279 0.27046511613688E-05
   280 -.81013899265320E-05
   281 -.79556519968619E-07
   282 -.57554293755486E-05
   283 0.92525163413696E-05
   284 -.40256563221373E-06
   285 0.21267590642019E-05
   286 0.16166388114050E-05
   287 0.50930190423562E-06
   288 0.54424400626656E-06
   289 -.30907733080375E-05
   290 0.37067417402704E-04
   291 -.33437960343279E-03
   292 0.10555253978730E-02
   293 -.92237406867013E-04
   294 0.34921418557102E-04
   295 0.59556995558887E-04
   296 -.19094368750209E-05
   297 -.32511117037337E-03
   298 -.31102565166633E-03
   299 0.76586964631133E-05
   300 -.40979393016849E-03
   301 0.35931551902508E-04
   302 -.82586223511440E-05
   303 0.28792291459317E-05
   304 -.60700335191296E-05
   305 0.31908043731979E-05
   306 -.14062201929222E-04
   307 0.58104319326168E-06
   308 0.21567695172684E-06
   309 -.17723665742917E-07
   310 0.22771085352625E-04
   311 -.22753361686882E-04
   312 0.79804477037325E-04
   313 -.29132460555511E-05
   314 -.88923004084599E-06
   315 0.71807439872603E-05
   316 0.14122591516807E-05
   317 -.31040362947151E-06
   318 -.53302651394632E-05
   319 -.34623046086353E-05
   320 0.45136550120637E-06
   321 -.43037138712589E-05
   322 0.15675601296327E-05
   323 -.34915331629801E-07
   324 -.48793135594332E-07
   325 0.82422291279475E-04
   326 0.61421190860784E-04