[Molden Format]
[Title]
                                                                                
[Atoms] AU
 c     1    6 0.86352290600181E+00 -.58845508164390E+00 0.10644146036316E+01
 c     2    6 -.15463202144322E+01 -.81878845787184E+00 -.50739255158183E+00
 o     3    8 -.26166517590218E+01 0.15844728402512E+01 -.11048185224779E+01
 n     4    7 0.28933430496287E+01 0.88836367735106E+00 -.78922150683970E-01
 h     5    1 0.15768164681542E+01 -.24845564062211E+01 0.14825202361315E+01
 h     6    1 0.39133589398287E+00 0.26862346490599E+00 0.28919831940828E+01
 h     7    1 -.11258419376980E+01 -.16982410361641E+01 -.23277675510064E+01
 h     8    1 -.29289531444025E+01 -.20184044336796E+01 0.47157490237566E+00
 h     9    1 -.32967240944060E+01 0.23120124662953E+01 0.42024361894380E+00
 h    10    1 0.35917571988627E+01 -.11948133043940E-01 -.16203933694029E+01
 h    11    1 0.21977175230562E+01 0.25669248792731E+01 -.69144052028595E+00
[GTO]
    1 0
 s    6 1.00
 0.13575349682000E+05 0.60645503603591E-03
 0.20352333680000E+04 0.46979088884982E-02
 0.46322562359000E+03 0.24332477647552E-01
 0.13120019598000E+03 0.97399968307759E-01
 0.42853015891000E+02 0.30195584253780E+00
 0.15584185766000E+02 0.66233609137875E+00
 s    2 1.00
 0.62067138508000E+01 0.65595308539952E+00
 0.25764896527000E+01 0.37585633285142E+00
 s    1 1.00
 0.57696339419000E+00 0.10000000000000E+01
 s    1 1.00
 0.22972831358000E+00 0.10000000000000E+01
 s    1 1.00
 0.95164440028000E-01 0.10000000000000E+01
 p    4 1.00
 0.34697232244000E+02 0.11327220003114E-01
 0.79582622826000E+01 0.76169659202087E-01
 0.23780826883000E+01 0.30192252202676E+00
 0.81433208183000E+00 0.72785027349547E+00
 p    1 1.00
 0.28887547253000E+00 0.10000000000000E+01
 p    1 1.00
 0.10056823671000E+00 0.10000000000000E+01
 d    1 1.00
 0.10970000000000E+01 0.10000000000000E+01
 d    1 1.00
 0.31800000000000E+00 0.10000000000000E+01
 f    1 1.00
 0.76100000000000E+00 0.10000000000000E+01
 
    2 0
 s    6 1.00
 0.13575349682000E+05 0.60645503603591E-03
 0.20352333680000E+04 0.46979088884982E-02
 0.46322562359000E+03 0.24332477647552E-01
 0.13120019598000E+03 0.97399968307759E-01
 0.42853015891000E+02 0.30195584253780E+00
 0.15584185766000E+02 0.66233609137875E+00
 s    2 1.00
 0.62067138508000E+01 0.65595308539952E+00
 0.25764896527000E+01 0.37585633285142E+00
 s    1 1.00
 0.57696339419000E+00 0.10000000000000E+01
 s    1 1.00
 0.22972831358000E+00 0.10000000000000E+01
 s    1 1.00
 0.95164440028000E-01 0.10000000000000E+01
 p    4 1.00
 0.34697232244000E+02 0.11327220003114E-01
 0.79582622826000E+01 0.76169659202087E-01
 0.23780826883000E+01 0.30192252202676E+00
 0.81433208183000E+00 0.72785027349547E+00
 p    1 1.00
 0.28887547253000E+00 0.10000000000000E+01
 p    1 1.00
 0.10056823671000E+00 0.10000000000000E+01
 d    1 1.00
 0.10970000000000E+01 0.10000000000000E+01
 d    1 1.00
 0.31800000000000E+00 0.10000000000000E+01
 f    1 1.00
 0.76100000000000E+00 0.10000000000000E+01
 
    3 0
 s    6 1.00
 0.27032382631000E+05 0.57227335211155E-03
 0.40523871392000E+04 0.44353233492995E-02
 0.92232722710000E+03 0.23020107706038E-01
 0.26124070989000E+03 0.92822490667928E-01
 0.85354641351000E+02 0.29378500009671E+00
 0.31035035245000E+02 0.67401604501641E+00
 s    2 1.00
 0.12260860728000E+02 0.63839937025506E+00
 0.49987076005000E+01 0.39534587125718E+00
 s    1 1.00
 0.11703108158000E+01 0.10000000000000E+01
 s    1 1.00
 0.46474740994000E+00 0.10000000000000E+01
 s    1 1.00
 0.18504536357000E+00 0.10000000000000E+01
 p    4 1.00
 0.63274954801000E+02 0.12018332222616E-01
 0.14627049379000E+02 0.83005421790056E-01
 0.44501223456000E+01 0.31991743925964E+00
 0.15275799647000E+01 0.70715542916104E+00
 p    1 1.00
 0.52935117943000E+00 0.10000000000000E+01
 p    1 1.00
 0.17478421270000E+00 0.10000000000000E+01
 d    1 1.00
 0.23140000000000E+01 0.10000000000000E+01
 d    1 1.00
 0.64500000000000E+00 0.10000000000000E+01
 f    1 1.00
 0.14280000000000E+01 0.10000000000000E+01
 
    4 0
 s    6 1.00
 0.19730800647000E+05 0.58626402628763E-03
 0.29578958745000E+04 0.45428820586397E-02
 0.67322133595000E+03 0.23558413450084E-01
 0.19068249494000E+03 0.94709193292923E-01
 0.62295441898000E+02 0.29719784913376E+00
 0.22654161182000E+02 0.66916246895232E+00
 s    2 1.00
 0.89791477428000E+01 0.64596683630063E+00
 0.36863002370000E+01 0.38700574393705E+00
 s    1 1.00
 0.84660076805000E+00 0.10000000000000E+01
 s    1 1.00
 0.33647133771000E+00 0.10000000000000E+01
 s    1 1.00
 0.13647653675000E+00 0.10000000000000E+01
 p    4 1.00
 0.49200380510000E+02 0.11448825101764E-01
 0.11346790537000E+02 0.78422337970864E-01
 0.34273972411000E+01 0.30818094738830E+00
 0.11785525134000E+01 0.72027196368413E+00
 p    1 1.00
 0.41642204972000E+00 0.10000000000000E+01
 p    1 1.00
 0.14260826011000E+00 0.10000000000000E+01
 d    1 1.00
 0.16540000000000E+01 0.10000000000000E+01
 d    1 1.00
 0.46900000000000E+00 0.10000000000000E+01
 f    1 1.00
 0.10930000000000E+01 0.10000000000000E+01
 
    5 0
 s    3 1.00
 0.34061341000000E+02 0.25439307208879E-01
 0.51235746000000E+01 0.19008594890375E+00
 0.11646626000000E+01 0.85244113011042E+00
 s    1 1.00
 0.32723041000000E+00 0.10000000000000E+01
 s    1 1.00
 0.10307241000000E+00 0.10000000000000E+01
 p    1 1.00
 0.80000000000000E+00 0.10000000000000E+01
 
    6 0
 s    3 1.00
 0.34061341000000E+02 0.25439307208879E-01
 0.51235746000000E+01 0.19008594890375E+00
 0.11646626000000E+01 0.85244113011042E+00
 s    1 1.00
 0.32723041000000E+00 0.10000000000000E+01
 s    1 1.00
 0.10307241000000E+00 0.10000000000000E+01
 p    1 1.00
 0.80000000000000E+00 0.10000000000000E+01
 
    7 0
 s    3 1.00
 0.34061341000000E+02 0.25439307208879E-01
 0.51235746000000E+01 0.19008594890375E+00
 0.11646626000000E+01 0.85244113011042E+00
 s    1 1.00
 0.32723041000000E+00 0.10000000000000E+01
 s    1 1.00
 0.10307241000000E+00 0.10000000000000E+01
 p    1 1.00
 0.80000000000000E+00 0.10000000000000E+01
 
    8 0
 s    3 1.00
 0.34061341000000E+02 0.25439307208879E-01
 0.51235746000000E+01 0.19008594890375E+00
 0.11646626000000E+01 0.85244113011042E+00
 s    1 1.00
 0.32723041000000E+00 0.10000000000000E+01
 s    1 1.00
 0.10307241000000E+00 0.10000000000000E+01
 p    1 1.00
 0.80000000000000E+00 0.10000000000000E+01
 
    9 0
 s    3 1.00
 0.34061341000000E+02 0.25439307208879E-01
 0.51235746000000E+01 0.19008594890375E+00
 0.11646626000000E+01 0.85244113011042E+00
 s    1 1.00
 0.32723041000000E+00 0.10000000000000E+01
 s    1 1.00
 0.10307241000000E+00 0.10000000000000E+01
 p    1 1.00
 0.80000000000000E+00 0.10000000000000E+01
 
   10 0
 s    3 1.00
 0.34061341000000E+02 0.25439307208879E-01
 0.51235746000000E+01 0.19008594890375E+00
 0.11646626000000E+01 0.85244113011042E+00
 s    1 1.00
 0.32723041000000E+00 0.10000000000000E+01
 s    1 1.00
 0.10307241000000E+00 0.10000000000000E+01
 p    1 1.00
 0.80000000000000E+00 0.10000000000000E+01
 
   11 0
 s    3 1.00
 0.34061341000000E+02 0.25439307208879E-01
 0.51235746000000E+01 0.19008594890375E+00
 0.11646626000000E+01 0.85244113011042E+00
 s    1 1.00
 0.32723041000000E+00 0.10000000000000E+01
 s    1 1.00
 0.10307241000000E+00 0.10000000000000E+01
 p    1 1.00
 0.80000000000000E+00 0.10000000000000E+01
 
[MO]
 Sym=     1a   
 Ene= -.19127760674575E+02
 Spin= Alpha
 Occup= 2.000000
     1 0.65202701587259E-05
     2 -.31481813793476E-04
     3 0.31338324026920E-03
     4 0.15643001165003E-03
     5 0.35589867488525E-02
     6 -.62691505315957E-04
     7 0.79251790469960E-04
     8 -.58902221724140E-04
     9 -.30657249694430E-03
    10 0.39198574923203E-03
    11 0.37043245153854E-04
    12 -.11277276338577E-02
    13 -.17456336587943E-03
    14 -.90817139913762E-03
    15 -.18047309194955E-04
    16 0.51285060555866E-04
    17 -.33237751360911E-04
    18 -.60728162072115E-04
    19 0.25852686771600E-04
    20 -.37386931098893E-04
    21 0.14866413826043E-03
    22 -.55330517340462E-03
    23 0.40464103514418E-03
    24 0.55379771150601E-03
    25 -.30527315903545E-03
    26 0.35916056834681E-03
    27 0.12654669040354E-04
    28 0.27988063529778E-04
    29 -.16258424029367E-06
    30 -.13989194587632E-04
    31 -.28093028999594E-04
    32 0.56792607945839E-05
    33 -.29888255365650E-05
    34 -.94568985671060E-05
    35 -.54611311465638E-05
    36 -.32524654737618E-04
    37 0.22395757441400E-04
    38 -.11506082750413E-03
    39 -.17466184732048E-02
    40 0.66522571893774E-02
    41 -.13518451751695E-01
    42 0.28909246310697E-04
    43 -.17042802416273E-03
    44 0.44644750703300E-04
    45 -.17090957803704E-02
    46 0.49480819910813E-02
    47 -.12393543076280E-02
    48 -.11673015737427E-02
    49 -.15262335584844E-02
    50 0.59519295194848E-03
    51 -.50577671571297E-04
    52 0.16746983799830E-03
    53 -.11689216642701E-03
    54 -.19294338588969E-03
    55 0.50460200227649E-04
    56 -.10515373520030E-03
    57 -.66170134565323E-03
    58 0.14764474255143E-02
    59 -.81474607986105E-03
    60 -.93598189684452E-03
    61 0.29823071744631E-03
    62 -.40240845569476E-03
    63 0.92507065739535E-04
    64 0.87826378433444E-04
    65 0.59939049921432E-04
    66 -.16293865680789E-03
    67 -.16459507701400E-04
    68 -.72581474098853E-05
    69 0.38827404372309E-04
    70 -.10137194373548E-03
    71 -.73158526668760E-04
    72 0.57203072335895E-04
    73 0.43509972537597E+00
    74 0.63955479978955E+00
    75 0.36030846398412E-01
    76 -.27372320275023E-01
    77 0.11375636868696E-01
    78 0.25513831241986E-03
    79 -.10637605732205E-02
    80 0.16338970813400E-02
    81 -.13475443745025E-02
    82 0.34574897399183E-02
    83 -.29380150695169E-02
    84 0.59188916737631E-03
    85 -.97181599110379E-03
    86 0.69862913140176E-03
    87 -.66842044563325E-04
    88 0.62618959243235E-04
    89 0.42230853200904E-05
    90 -.11557890781110E-03
    91 -.30797761616581E-04
    92 0.86511383659553E-05
    93 0.34758119021857E-03
    94 -.42746759582111E-03
    95 0.79886405602543E-04
    96 0.67390635006299E-03
    97 0.98002968505870E-04
    98 0.40437240518525E-04
    99 0.40490570718831E-05
   100 0.46710918275033E-04
   101 0.99925955433211E-05
   102 -.51964961743014E-04
   103 -.16835682565259E-05
   104 0.10277255965013E-04
   105 0.46532581628510E-04
   106 -.60985704876120E-04
   107 -.23683729708930E-04
   108 0.52298711135765E-04
   109 0.22492724289598E-05
   110 -.12740171756734E-04
   111 0.51602054734946E-04
   112 -.54208169885083E-03
   113 0.16418134000705E-02
   114 0.28414884620139E-04
   115 -.60223114823515E-04
   116 0.10861972292902E-04
   117 0.95494275596755E-05
   118 0.60487694785531E-03
   119 -.29201564600365E-03
   120 -.47529981119681E-03
   121 -.31212407681527E-03
   122 -.46594203506121E-03
   123 -.15789114542125E-04
   124 0.96332101142315E-05
   125 0.61559044278931E-05
   126 0.91580735959578E-06
   127 -.13188182641561E-05
   128 -.79554577077723E-05
   129 0.55711022918401E-04
   130 -.13359211894100E-04
   131 -.42351811024301E-04
   132 -.15465992726717E-03
   133 0.21995021739707E-04
   134 0.14989262049086E-04
   135 -.57236542356657E-05
   136 0.28427391530837E-05
   137 -.15770365675310E-05
   138 0.15453771457633E-05
   139 0.53939369472221E-05
   140 0.51653105248349E-05
   141 0.61337108246286E-05
   142 -.92078717403793E-05
   143 -.30494939440335E-05
   144 0.76883661040231E-05
   145 0.16813218159098E-03
   146 0.12153007658039E-02
   147 -.61249468065466E-03
   148 -.33208546441496E-04
   149 0.19975813438563E-03
   150 -.38066809698643E-05
   151 -.56724670938174E-04
   152 -.75581232080497E-03
   153 0.70491672403955E-03
   154 -.12333368502009E-03
   155 0.18090470727722E-03
   156 0.26889222229222E-04
   157 -.45844467053745E-04
   158 0.83392629302042E-03
   159 0.28165806083894E-02
   160 0.17730139305968E-03
   161 -.76414846981945E-04
   162 -.97700554858817E-05
   163 0.39988143760993E-04
   164 0.96932558898476E-03
   165 0.13994635866936E-02
   166 0.31588836735840E-04
   167 0.54077424271113E-04
   168 0.54043904089996E-04
   169 0.87434323603391E-03
   170 0.12443372182611E-02
   171 -.10499946131243E-02
   172 0.33029768359806E-03
   173 -.35475381852911E-03
   174 -.82183270230076E-03
   175 0.60084398297129E-04
   176 -.61241655617512E-03
   177 -.83990341530666E-04
   178 0.15363989164620E-04
   179 -.18938564360344E-04
   180 -.68277418861064E-04
   181 0.41930789563787E-05
   182 -.70520490994077E-03
   183 0.62522875287959E-04
   184 -.15906501548987E-04
   185 0.22131848806907E-03
   186 -.45155126229984E-04
 Sym=     2a   
 Ene= -.14289305575120E+02
 Spin= Alpha
 Occup= 2.000000
     1 0.10678717930803E-04
     2 -.56240751601070E-04
     3 -.18625787956149E-02
     4 0.92139373280263E-02
     5 -.12138265872359E-01
     6 -.59501890299337E-05
     7 -.57669860491315E-04
     8 0.72928597784856E-04
     9 0.48652140196252E-02
    10 0.38734072010443E-02
    11 -.33990547352971E-02
    12 -.13563312598235E-02
    13 -.13426540985155E-02
    14 0.50544746470056E-03
    15 0.85152578897592E-04
    16 -.78262750735544E-05
    17 -.77326303824037E-04
    18 0.13762428594450E-03
    19 -.10967685331810E-03
    20 -.47401033427037E-04
    21 0.35935024938453E-03
    22 -.20715386978650E-03
    23 -.15219637959804E-03
    24 0.11447088400107E-02
    25 -.85423373871702E-03
    26 -.10110925366794E-02
    27 -.10651459934019E-04
    28 -.43706659355415E-04
    29 0.22419232527888E-04
    30 0.26469079585864E-04
    31 0.32844572528353E-04
    32 -.31209338179586E-04
    33 -.12178646502615E-04
    34 0.25794064304528E-04
    35 0.11307814181468E-05
    36 -.40305230948194E-04
    37 0.49058635950156E-05
    38 -.26692713630553E-04
    39 0.34831725094962E-03
    40 0.11185502578889E-03
    41 0.78887794628444E-03
    42 0.15011949958880E-03
    43 0.52879073916540E-04
    44 -.10004236816496E-04
    45 -.21480960024759E-03
    46 0.16726372438689E-05
    47 -.18322520251988E-03
    48 -.25381938190505E-03
    49 -.10313088692142E-03
    50 0.66245124432796E-03
    51 0.21571396331252E-04
    52 -.73804229524761E-05
    53 -.14190973378776E-04
    54 0.59299714547528E-04
    55 -.28195678934142E-04
    56 -.24029024492956E-04
    57 -.42757751667754E-03
    58 0.15772202004409E-03
    59 0.26985549663345E-03
    60 -.70243211005744E-03
    61 0.28267227747650E-03
    62 0.25425374581014E-03
    63 -.37200605665942E-04
    64 0.20076002061824E-04
    65 0.91622196821581E-05
    66 0.13862789300524E-05
    67 -.40629934349609E-04
    68 0.22808079747280E-05
    69 0.48523570913873E-04
    70 0.13695151153609E-04
    71 -.14573215595183E-04
    72 -.21781134181719E-04
    73 0.98217269915011E-06
    74 -.10711192133194E-04
    75 0.11413554162212E-03
    76 -.46317150313493E-03
    77 0.20828752401464E-03
    78 0.81490972842088E-05
    79 -.13781711987923E-04
    80 0.22237775709844E-04
    81 -.32831008499980E-04
    82 0.21332704864258E-03
    83 -.12730492683893E-03
    84 0.25784340391080E-03
    85 0.19561274639411E-03
    86 0.46790889945956E-04
    87 -.41499842347288E-05
    88 0.53469256335060E-05
    89 -.11969413987772E-05
    90 0.43992654724627E-05
    91 0.97055793488647E-05
    92 -.56706870663849E-05
    93 0.55022250813526E-04
    94 -.51768873364974E-04
    95 -.32533774485521E-05
    96 -.92321340460719E-05
    97 -.40872833369985E-04
    98 0.38038149487077E-04
    99 0.63336822952846E-06
   100 -.10457020095299E-05
   101 -.17088379614887E-05
   102 -.17288398587282E-06
   103 -.37299402295415E-05
   104 0.15721785610190E-05
   105 -.67686866373577E-06
   106 0.51328966960517E-05
   107 0.72046814563356E-06
   108 0.13397254885872E-05
   109 0.44831680567779E+00
   110 0.62685881013913E+00
   111 0.37206753580800E-01
   112 -.31276656052398E-01
   113 0.19540175787383E-01
   114 -.18569201503118E-02
   115 -.71222870714461E-03
   116 -.76161019425058E-03
   117 0.54761806071021E-02
   118 0.34675053640483E-02
   119 -.19389751318321E-02
   120 -.22505552992119E-02
   121 -.55223728639824E-03
   122 -.10428898214854E-02
   123 -.76965889524662E-05
   124 0.35019373486900E-04
   125 -.27322784534434E-04
   126 0.28430887937471E-04
   127 -.10642403188068E-03
   128 -.37960685482392E-04
   129 -.55948636659721E-03
   130 0.15617332777987E-03
   131 0.40331303881733E-03
   132 -.10173437215249E-02
   133 0.60127190228396E-03
   134 0.47150522500220E-03
   135 0.16254470290758E-06
   136 -.15542371614841E-04
   137 0.42519608800879E-04
   138 -.11546209097489E-05
   139 0.55647587933547E-04
   140 -.31694064673794E-04
   141 0.93654430669864E-06
   142 -.34795308256139E-04
   143 -.25351976719485E-04
   144 -.23648515697622E-04
   145 0.26121531437412E-04
   146 0.30777938515985E-03
   147 0.19369596846764E-02
   148 -.23797269037271E-03
   149 -.18583596851966E-03
   150 0.27381844647081E-04
   151 0.33751813483912E-06
   152 0.65225260154469E-03
   153 0.21314516731673E-02
   154 -.25760414960710E-03
   155 -.98501784718574E-04
   156 0.37086801908757E-04
   157 -.18339122049121E-04
   158 -.45860860909647E-03
   159 0.95122181762879E-03
   160 0.13190235321377E-03
   161 0.68446118594943E-04
   162 -.11004975158495E-03
   163 0.12727872059795E-03
   164 0.99213092362796E-03
   165 -.86897775152038E-03
   166 0.47314244622281E-04
   167 0.91873168762271E-04
   168 -.10894970782331E-03
   169 0.11384852288356E-05
   170 -.11917937311608E-03
   171 0.28668313179535E-03
   172 0.65862508946425E-04
   173 0.63831884591449E-05
   174 0.23297468381558E-04
   175 0.19376551095057E-03
   176 -.83524688861281E-03
   177 -.22414800501347E-02
   178 0.25279681450573E-03
   179 -.33021985084160E-03
   180 -.47845557084984E-03
   181 0.20539128705231E-03
   182 -.81666831434411E-03
   183 -.24087506367808E-02
   184 -.23524423445104E-03
   185 0.53498414186505E-03
   186 -.14795241117066E-03
 Sym=     3a   
 Ene= -.10214757903501E+02
 Spin= Alpha
 Occup= 2.000000
     1 0.22090641769534E-02
     2 0.29606452230850E-02
     3 0.37424708922363E-03
     4 0.18748092919596E-02
     5 -.93875007022038E-02
     6 -.36709445057239E-03
     7 -.10103399301579E-03
     8 -.12373303591578E-03
     9 0.20517681479443E-02
    10 0.95491650062181E-03
    11 0.21191177981214E-03
    12 0.39644072074592E-02
    13 0.16689506895881E-03
    14 0.23236677534334E-02
    15 -.50065681387136E-04
    16 0.56553963420284E-04
    17 -.64882820331488E-05
    18 -.10610593224867E-05
    19 -.82793483114102E-04
    20 0.16994054382660E-05
    21 -.60334146614868E-03
    22 0.51551719408402E-03
    23 0.87824272064652E-04
    24 0.75081168555986E-04
    25 -.11561242223469E-02
    26 -.28410378241499E-03
    27 0.51212546390262E-04
    28 -.94107372847288E-04
    29 -.88229417300293E-04
    30 -.13907865855062E-03
    31 0.74376640754763E-04
    32 0.23415092625938E-03
    33 0.70369817532923E-04
    34 0.51881648967509E-04
    35 -.11577874144019E-03
    36 -.19538714970217E-04
    37 0.46687454575373E+00
    38 0.60853663672116E+00
    39 0.35367253026635E-01
    40 -.15498682100775E-01
    41 0.26721182385392E-01
    42 -.13693066788947E-03
    43 0.76927443072039E-03
    44 0.96177354858493E-05
    45 -.82877358147621E-03
    46 -.83240647363123E-03
    47 -.12889763340116E-02
    48 0.28407626845503E-02
    49 -.34516912761221E-03
    50 0.11326953174286E-02
    51 -.40323664584665E-04
    52 0.91821655823395E-04
    53 -.51497991238730E-04
    54 -.66303270014741E-04
    55 -.21109659499043E-06
    56 -.42925266757993E-04
    57 -.40147032878976E-03
    58 0.12187457232123E-03
    59 0.27959575646853E-03
    60 -.42892135476325E-04
    61 -.37725364148929E-03
    62 -.11315873082271E-03
    63 0.92638236345550E-04
    64 0.25266612501217E-03
    65 -.11884888780072E-03
    66 -.25626710008272E-03
    67 -.67979293520076E-04
    68 0.22634184409126E-03
    69 0.13197986381211E-03
    70 -.27100788516312E-03
    71 -.66889328787663E-04
    72 0.27005688791627E-03
    73 -.13589172500550E-04
    74 -.12771033379206E-03
    75 0.11694520201543E-02
    76 -.13970434351441E-02
    77 -.18104043222897E-02
    78 0.25557097656728E-03
    79 -.56055125958467E-03
    80 0.91965100241226E-04
    81 -.11701522041914E-02
    82 0.23560143595601E-02
    83 -.20163017296189E-03
    84 -.48774607526688E-03
    85 0.52281657483022E-03
    86 0.12713294183125E-02
    87 -.23865453156405E-04
    88 0.11746253514794E-03
    89 -.93597081991530E-04
    90 -.75388685332562E-04
    91 0.23080201529351E-04
    92 -.58388064776713E-04
    93 0.20566267980202E-03
    94 -.87554085084398E-03
    95 0.66987817104197E-03
    96 0.63841807839977E-03
    97 -.24323838846679E-03
    98 0.48288094475786E-03
    99 0.99106581125331E-04
   100 0.67263108020419E-04
   101 0.67213732469734E-04
   102 -.15180340684022E-03
   103 -.26060361859524E-04
   104 0.81542101128693E-06
   105 0.18837975391916E-04
   106 -.64182567287416E-04
   107 -.90992105905573E-04
   108 0.43644453449431E-04
   109 0.24515215153517E-05
   110 -.20383940825062E-04
   111 0.34479565722970E-03
   112 -.12906321762774E-02
   113 -.11876268166856E-02
   114 -.92312565483523E-04
   115 -.56648815898945E-04
   116 0.10247751231916E-04
   117 0.97167429860708E-03
   118 0.60170643147429E-03
   119 -.20242636183340E-03
   120 0.47253154571788E-03
   121 0.56468722406734E-03
   122 -.11002448256872E-03
   123 0.30539317785384E-05
   124 0.52028650525778E-05
   125 -.82567968311162E-05
   126 0.82902339458555E-05
   127 -.16151409310854E-04
   128 0.71270413410752E-05
   129 -.18730634728066E-03
   130 0.25277488331997E-04
   131 0.16202885894867E-03
   132 -.20515413658000E-03
   133 0.10498723084506E-03
   134 -.46949142621381E-04
   135 0.14700629632098E-04
   136 -.10248816563260E-04
   137 0.15886949682940E-05
   138 0.78579186831359E-07
   139 0.17613021438842E-04
   140 -.44413668148541E-05
   141 -.19801543488483E-04
   142 -.38627911242166E-05
   143 0.23099088480838E-05
   144 0.49144742623855E-05
   145 -.42112995959931E-04
   146 -.34141073928319E-03
   147 -.61357621769588E-03
   148 0.22611796633489E-03
   149 0.67124314367531E-04
   150 0.13548447110354E-03
   151 -.57741153863350E-04
   152 -.57654318314955E-03
   153 0.47394127547829E-04
   154 0.22081406607243E-03
   155 0.48064378558521E-04
   156 0.14329231178660E-03
   157 -.60727299164169E-03
   158 -.31360310003182E-02
   159 -.43279349782343E-02
   160 0.42399023623979E-03
   161 -.97646187371079E-03
   162 -.20085261928401E-02
   163 -.55400480739318E-03
   164 -.24670327278158E-02
   165 -.39054348454280E-02
   166 -.14882157757991E-02
   167 -.12244129199541E-02
   168 0.96346706849934E-03
   169 -.26635578732541E-03
   170 -.14383214097845E-02
   171 -.11102262419459E-02
   172 -.17765147394841E-03
   173 0.24786600328813E-03
   174 0.23873683550236E-03
   175 0.35358260948699E-04
   176 0.12893701993656E-03
   177 0.62260300432483E-04
   178 0.68355292616904E-04
   179 -.19889570395154E-04
   180 0.11360785121116E-04
   181 -.25307756334290E-04
   182 -.26109794139789E-04
   183 -.48326912308367E-03
   184 0.50716335265926E-04
   185 0.11945686067738E-03
   186 0.36901711127358E-04
 Sym=     4a   
 Ene= -.10192466536901E+02
 Spin= Alpha
 Occup= 2.000000
     1 0.46684945800927E+00
     2 0.60844970098404E+00
     3 0.35841366607523E-01
     4 -.15073603844767E-01
     5 0.33817796013013E-01
     6 0.42728282713937E-04
     7 0.21534071111624E-03
     8 -.38472698288856E-03
     9 0.33400123463124E-02
    10 0.10274198540513E-02
    11 0.86238019567045E-03
    12 -.20816538887274E-02
    13 0.40331009353138E-03
    14 -.14387024176987E-02
    15 0.47822309073566E-04
    16 0.69216720445347E-05
    17 -.54743981118100E-04
    18 0.93395595187139E-04
    19 -.10051600528564E-03
    20 -.73496618959053E-04
    21 -.20759301013182E-03
    22 0.30695554898005E-03
    23 -.99362538848235E-04
    24 0.30882687247697E-03
    25 -.74039556071695E-03
    26 -.87220666784137E-04
    27 -.51539626365218E-04
    28 -.27815547256591E-03
    29 0.13109051655270E-03
    30 0.22263425774737E-03
    31 0.13412885976035E-03
    32 -.23551410061023E-03
    33 -.15348659289483E-03
    34 0.23905586722222E-03
    35 0.59637716879792E-04
    36 -.25591160196015E-03
    37 -.22657760086085E-02
    38 -.28745635744818E-02
    39 -.42448592840220E-05
    40 0.24422700569697E-02
    41 -.12458540280244E-01
    42 0.31024934427910E-03
    43 -.81626463712639E-04
    44 0.19543147445715E-03
    45 -.81399182373691E-03
    46 0.60461342029279E-03
    47 -.48764665376667E-03
    48 -.46300851134379E-02
    49 -.64725244804534E-03
    50 -.18911555705218E-02
    51 -.44618483269292E-04
    52 0.29449878141544E-04
    53 0.15168605127747E-04
    54 -.16357784938427E-04
    55 -.79416261621073E-04
    56 -.18858314139993E-04
    57 -.65662747224771E-03
    58 0.73453335627769E-03
    59 -.77905884029983E-04
    60 -.19625318763101E-03
    61 -.72415483412418E-03
    62 -.12396737473421E-03
    63 -.46189346170934E-04
    64 0.93129099708859E-04
    65 0.12537167274076E-03
    66 0.11410720488894E-03
    67 -.60147149631096E-04
    68 -.25248718608867E-03
    69 -.52137694164248E-04
    70 -.64798648948323E-04
    71 0.84283436467951E-04
    72 -.58181101392870E-05
    73 0.19279794746056E-05
    74 -.20329397261397E-04
    75 0.22760427008027E-03
    76 -.70821939440319E-03
    77 -.48937345639292E-03
    78 0.73536772083133E-04
    79 -.43748517824699E-04
    80 0.23137895151991E-04
    81 -.55746084053533E-03
    82 0.46168274362996E-03
    83 -.13350297175267E-03
    84 -.47060507755629E-04
    85 0.12970433776753E-03
    86 -.36943277929584E-03
    87 0.70114391024100E-05
    88 -.72197732891040E-05
    89 0.20833418669393E-06
    90 -.14864646978988E-04
    91 0.11776490376317E-05
    92 -.68389140696925E-05
    93 -.70768070105733E-04
    94 0.37626635241787E-04
    95 0.33141434863946E-04
    96 0.11690384077372E-03
    97 -.60295914999870E-04
    98 0.89211183355708E-04
    99 -.39248555633408E-06
   100 -.14054835766901E-04
   101 0.58302577441162E-05
   102 0.85530862993488E-06
   103 0.10051323045112E-04
   104 -.34355764710168E-05
   105 -.32873399944498E-06
   106 0.88052178673198E-05
   107 -.43865351142963E-05
   108 0.94623913394856E-05
   109 -.21375814723870E-04
   110 -.11714349294128E-03
   111 0.15952378263215E-02
   112 -.30027429014899E-02
   113 -.45534319988419E-02
   114 -.49687583419676E-03
   115 -.39732360195017E-03
   116 0.33946259869834E-03
   117 0.28928819976637E-02
   118 0.22993637533257E-02
   119 -.21475281856125E-02
   120 0.15185162727143E-02
   121 0.12664292104987E-02
   122 -.24264491746128E-02
   123 0.12133490617171E-04
   124 -.94885280554658E-05
   125 -.26449625617055E-05
   126 0.52454901330554E-04
   127 -.51006065526904E-04
   128 -.36309075171434E-04
   129 -.60597477256183E-03
   130 0.21989525174641E-03
   131 0.38607952081541E-03
   132 -.13075757904537E-02
   133 0.88934451159554E-03
   134 0.70934571924591E-03
   135 -.30712225457266E-04
   136 -.92814984326250E-04
   137 0.13701234567773E-03
   138 0.38291834959086E-04
   139 0.18114330683918E-03
   140 -.12530351981664E-03
   141 0.29129393585623E-05
   142 -.56618938268734E-04
   143 -.58517831398622E-04
   144 -.14614889696522E-03
   145 -.51317490373200E-03
   146 -.27434079100573E-02
   147 -.49087912054466E-02
   148 0.72878037564206E-03
   149 -.20165788123876E-02
   150 0.46736884214023E-03
   151 -.51177398299479E-03
   152 -.29403713113733E-02
   153 -.54501648186876E-02
   154 -.54018168691619E-03
   155 0.86334511875045E-03
   156 0.19456531174160E-02
   157 -.43106005871129E-04
   158 -.26504463380056E-03
   159 0.49568705085737E-03
   160 -.24558586160516E-03
   161 0.48997315680278E-04
   162 -.13302807317563E-03
   163 0.13842239336471E-05
   164 -.55178961425751E-03
   165 -.41453147968903E-03
   166 -.25814787768953E-03
   167 0.12150634104011E-04
   168 -.18590034508812E-03
   169 0.14263182649198E-04
   170 -.11072220250697E-03
   171 0.31256927823525E-04
   172 -.15112523706081E-03
   173 0.10226699476775E-03
   174 0.43957598843160E-04
   175 -.12492261402712E-03
   176 -.14944144816829E-02
   177 -.12170931166020E-02
   178 0.29509573759427E-03
   179 -.83536436938566E-05
   180 -.25326411077080E-03
   181 -.18599687361683E-03
   182 -.12679209360445E-02
   183 -.94687906900224E-03
   184 0.46426174556634E-04
   185 0.30845920349832E-03
   186 -.10635102979846E-03
 Sym=     5a   
 Ene= -.10238017277513E+01
 Spin= Alpha
 Occup= 2.000000
     1 -.91665023867659E-02
     2 -.19047015758458E-01
     3 0.29649005875629E-01
     4 0.20395794756335E-01
     5 0.56255572030670E-02
     6 -.10442429814793E-01
     7 0.52978841444593E-02
     8 -.86641254057753E-02
     9 -.43137560606559E-02
    10 0.32940048752356E-02
    11 -.36516403113867E-02
    12 -.98214426394432E-03
    13 0.14413458075870E-02
    14 -.20854419493112E-02
    15 0.45043909568451E-03
    16 -.34205795187659E-03
    17 -.10838114380793E-03
    18 -.19713532474024E-03
    19 0.38625003618411E-03
    20 -.28777469807119E-03
    21 0.28682587680186E-03
    22 0.30780877166502E-03
    23 -.59463464846688E-03
    24 -.10731855272720E-02
    25 0.33919108863775E-03
    26 -.84090493836999E-03
    27 -.41493167964949E-04
    28 -.22796428985795E-03
    29 0.10462000761033E-03
    30 0.55058540638468E-04
    31 0.22471772358823E-03
    32 -.14090004139542E-03
    33 0.61038586439718E-06
    34 0.81128465550676E-04
    35 0.53757210146655E-06
    36 0.76972153625466E-04
    37 -.35907194859260E-01
    38 -.75151641823410E-01
    39 0.11930964561637E+00
    40 0.96992240975568E-01
    41 0.47480281611899E-02
    42 -.28611641938767E-01
    43 0.67193850349906E-01
    44 -.11469453930183E-01
    45 -.11418115283463E-01
    46 0.33347033262662E-01
    47 -.33755544333551E-03
    48 -.32030600316116E-02
    49 0.24902039385868E-02
    50 0.24824468727341E-02
    51 -.13768497770794E-02
    52 0.38674246378923E-02
    53 -.24905748608129E-02
    54 -.34755969793165E-02