[Molden Format]
[Title]
                                                                                
[Atoms] AU
 c     1    6 0.24991852585994E+01 -.18389490690884E+01 0.27699370705118E+00
 c     2    6 0.33818857825315E+01 -.13282979149525E+01 -.24198514575206E+01
 o     3    8 0.45658896050579E+01 0.10647514457761E+01 -.26048443810552E+01
 n     4    7 0.83999741064527E+00 0.19706452194017E+00 0.11542144246758E+01
 c     5    6 -.18172233705479E+01 -.77642587500480E-01 0.47826215082857E+00
 c     6    6 -.33394421228309E+01 0.22098372223834E+01 0.13447054117962E+01
 o     7    8 -.59405035309862E+01 0.20105341943064E+01 0.70773528366679E+00
 h     8    1 0.15894572749644E+01 -.37077972180121E+01 0.37976973420259E+00
 h     9    1 0.41567985147641E+01 -.18766857139668E+01 0.15061460989194E+01
 h    10    1 0.17822612914277E+01 -.14590432897689E+01 -.37386268259060E+01
 h    11    1 0.47654795809215E+01 -.27511236241475E+01 -.29850359671652E+01
 h    12    1 0.35524146395068E+01 0.21909269070223E+01 -.15767832384544E+01
 h    13    1 0.10134761062682E+01 0.41747514991484E+00 0.30459869235944E+01
 h    14    1 -.19826855548205E+01 -.23943317697939E+00 -.15723027584454E+01
 h    15    1 -.26600134728064E+01 -.18091914556044E+01 0.12861923968143E+01
 h    16    1 -.26484264572750E+01 0.39063572928749E+01 0.40237175420007E+00
 h    17    1 -.30958082887329E+01 0.24900961961904E+01 0.33890344916118E+01
 h    18    1 -.66627426666873E+01 0.60111922988738E+00 0.16063544429966E+01
[GTO]
    1 0
 s    6 1.00
 0.13575349682000E+05 0.60645503603591E-03
 0.20352333680000E+04 0.46979088884982E-02
 0.46322562359000E+03 0.24332477647552E-01
 0.13120019598000E+03 0.97399968307759E-01
 0.42853015891000E+02 0.30195584253780E+00
 0.15584185766000E+02 0.66233609137875E+00
 s    2 1.00
 0.62067138508000E+01 0.65595308539952E+00
 0.25764896527000E+01 0.37585633285142E+00
 s    1 1.00
 0.57696339419000E+00 0.10000000000000E+01
 s    1 1.00
 0.22972831358000E+00 0.10000000000000E+01
 s    1 1.00
 0.95164440028000E-01 0.10000000000000E+01
 p    4 1.00
 0.34697232244000E+02 0.11327220003114E-01
 0.79582622826000E+01 0.76169659202087E-01
 0.23780826883000E+01 0.30192252202676E+00
 0.81433208183000E+00 0.72785027349547E+00
 p    1 1.00
 0.28887547253000E+00 0.10000000000000E+01
 p    1 1.00
 0.10056823671000E+00 0.10000000000000E+01
 d    1 1.00
 0.10970000000000E+01 0.10000000000000E+01
 d    1 1.00
 0.31800000000000E+00 0.10000000000000E+01
 f    1 1.00
 0.76100000000000E+00 0.10000000000000E+01
 
    2 0
 s    6 1.00
 0.13575349682000E+05 0.60645503603591E-03
 0.20352333680000E+04 0.46979088884982E-02
 0.46322562359000E+03 0.24332477647552E-01
 0.13120019598000E+03 0.97399968307759E-01
 0.42853015891000E+02 0.30195584253780E+00
 0.15584185766000E+02 0.66233609137875E+00
 s    2 1.00
 0.62067138508000E+01 0.65595308539952E+00
 0.25764896527000E+01 0.37585633285142E+00
 s    1 1.00
 0.57696339419000E+00 0.10000000000000E+01
 s    1 1.00
 0.22972831358000E+00 0.10000000000000E+01
 s    1 1.00
 0.95164440028000E-01 0.10000000000000E+01
 p    4 1.00
 0.34697232244000E+02 0.11327220003114E-01
 0.79582622826000E+01 0.76169659202087E-01
 0.23780826883000E+01 0.30192252202676E+00
 0.81433208183000E+00 0.72785027349547E+00
 p    1 1.00
 0.28887547253000E+00 0.10000000000000E+01
 p    1 1.00
 0.10056823671000E+00 0.10000000000000E+01
 d    1 1.00
 0.10970000000000E+01 0.10000000000000E+01
 d    1 1.00
 0.31800000000000E+00 0.10000000000000E+01
 f    1 1.00
 0.76100000000000E+00 0.10000000000000E+01
 
    3 0
 s    6 1.00
 0.27032382631000E+05 0.57227335211155E-03
 0.40523871392000E+04 0.44353233492995E-02
 0.92232722710000E+03 0.23020107706038E-01
 0.26124070989000E+03 0.92822490667928E-01
 0.85354641351000E+02 0.29378500009671E+00
 0.31035035245000E+02 0.67401604501641E+00
 s    2 1.00
 0.12260860728000E+02 0.63839937025506E+00
 0.49987076005000E+01 0.39534587125718E+00
 s    1 1.00
 0.11703108158000E+01 0.10000000000000E+01
 s    1 1.00
 0.46474740994000E+00 0.10000000000000E+01
 s    1 1.00
 0.18504536357000E+00 0.10000000000000E+01
 p    4 1.00
 0.63274954801000E+02 0.12018332222616E-01
 0.14627049379000E+02 0.83005421790056E-01
 0.44501223456000E+01 0.31991743925964E+00
 0.15275799647000E+01 0.70715542916104E+00
 p    1 1.00
 0.52935117943000E+00 0.10000000000000E+01
 p    1 1.00
 0.17478421270000E+00 0.10000000000000E+01
 d    1 1.00
 0.23140000000000E+01 0.10000000000000E+01
 d    1 1.00
 0.64500000000000E+00 0.10000000000000E+01
 f    1 1.00
 0.14280000000000E+01 0.10000000000000E+01
 
    4 0
 s    6 1.00
 0.19730800647000E+05 0.58626402628763E-03
 0.29578958745000E+04 0.45428820586397E-02
 0.67322133595000E+03 0.23558413450084E-01
 0.19068249494000E+03 0.94709193292923E-01
 0.62295441898000E+02 0.29719784913376E+00
 0.22654161182000E+02 0.66916246895232E+00
 s    2 1.00
 0.89791477428000E+01 0.64596683630063E+00
 0.36863002370000E+01 0.38700574393705E+00
 s    1 1.00
 0.84660076805000E+00 0.10000000000000E+01
 s    1 1.00
 0.33647133771000E+00 0.10000000000000E+01
 s    1 1.00
 0.13647653675000E+00 0.10000000000000E+01
 p    4 1.00
 0.49200380510000E+02 0.11448825101764E-01
 0.11346790537000E+02 0.78422337970864E-01
 0.34273972411000E+01 0.30818094738830E+00
 0.11785525134000E+01 0.72027196368413E+00
 p    1 1.00
 0.41642204972000E+00 0.10000000000000E+01
 p    1 1.00
 0.14260826011000E+00 0.10000000000000E+01
 d    1 1.00
 0.16540000000000E+01 0.10000000000000E+01
 d    1 1.00
 0.46900000000000E+00 0.10000000000000E+01
 f    1 1.00
 0.10930000000000E+01 0.10000000000000E+01
 
    5 0
 s    6 1.00
 0.13575349682000E+05 0.60645503603591E-03
 0.20352333680000E+04 0.46979088884982E-02
 0.46322562359000E+03 0.24332477647552E-01
 0.13120019598000E+03 0.97399968307759E-01
 0.42853015891000E+02 0.30195584253780E+00
 0.15584185766000E+02 0.66233609137875E+00
 s    2 1.00
 0.62067138508000E+01 0.65595308539952E+00
 0.25764896527000E+01 0.37585633285142E+00
 s    1 1.00
 0.57696339419000E+00 0.10000000000000E+01
 s    1 1.00
 0.22972831358000E+00 0.10000000000000E+01
 s    1 1.00
 0.95164440028000E-01 0.10000000000000E+01
 p    4 1.00
 0.34697232244000E+02 0.11327220003114E-01
 0.79582622826000E+01 0.76169659202087E-01
 0.23780826883000E+01 0.30192252202676E+00
 0.81433208183000E+00 0.72785027349547E+00
 p    1 1.00
 0.28887547253000E+00 0.10000000000000E+01
 p    1 1.00
 0.10056823671000E+00 0.10000000000000E+01
 d    1 1.00
 0.10970000000000E+01 0.10000000000000E+01
 d    1 1.00
 0.31800000000000E+00 0.10000000000000E+01
 f    1 1.00
 0.76100000000000E+00 0.10000000000000E+01
 
    6 0
 s    6 1.00
 0.13575349682000E+05 0.60645503603591E-03
 0.20352333680000E+04 0.46979088884982E-02
 0.46322562359000E+03 0.24332477647552E-01
 0.13120019598000E+03 0.97399968307759E-01
 0.42853015891000E+02 0.30195584253780E+00
 0.15584185766000E+02 0.66233609137875E+00
 s    2 1.00
 0.62067138508000E+01 0.65595308539952E+00
 0.25764896527000E+01 0.37585633285142E+00
 s    1 1.00
 0.57696339419000E+00 0.10000000000000E+01
 s    1 1.00
 0.22972831358000E+00 0.10000000000000E+01
 s    1 1.00
 0.95164440028000E-01 0.10000000000000E+01
 p    4 1.00
 0.34697232244000E+02 0.11327220003114E-01
 0.79582622826000E+01 0.76169659202087E-01
 0.23780826883000E+01 0.30192252202676E+00
 0.81433208183000E+00 0.72785027349547E+00
 p    1 1.00
 0.28887547253000E+00 0.10000000000000E+01
 p    1 1.00
 0.10056823671000E+00 0.10000000000000E+01
 d    1 1.00
 0.10970000000000E+01 0.10000000000000E+01
 d    1 1.00
 0.31800000000000E+00 0.10000000000000E+01
 f    1 1.00
 0.76100000000000E+00 0.10000000000000E+01
 
    7 0
 s    6 1.00
 0.27032382631000E+05 0.57227335211155E-03
 0.40523871392000E+04 0.44353233492995E-02
 0.92232722710000E+03 0.23020107706038E-01
 0.26124070989000E+03 0.92822490667928E-01
 0.85354641351000E+02 0.29378500009671E+00
 0.31035035245000E+02 0.67401604501641E+00
 s    2 1.00
 0.12260860728000E+02 0.63839937025506E+00
 0.49987076005000E+01 0.39534587125718E+00
 s    1 1.00
 0.11703108158000E+01 0.10000000000000E+01
 s    1 1.00
 0.46474740994000E+00 0.10000000000000E+01
 s    1 1.00
 0.18504536357000E+00 0.10000000000000E+01
 p    4 1.00
 0.63274954801000E+02 0.12018332222616E-01
 0.14627049379000E+02 0.83005421790056E-01
 0.44501223456000E+01 0.31991743925964E+00
 0.15275799647000E+01 0.70715542916104E+00
 p    1 1.00
 0.52935117943000E+00 0.10000000000000E+01
 p    1 1.00
 0.17478421270000E+00 0.10000000000000E+01
 d    1 1.00
 0.23140000000000E+01 0.10000000000000E+01
 d    1 1.00
 0.64500000000000E+00 0.10000000000000E+01
 f    1 1.00
 0.14280000000000E+01 0.10000000000000E+01
 
    8 0
 s    3 1.00
 0.34061341000000E+02 0.25439307208879E-01
 0.51235746000000E+01 0.19008594890375E+00
 0.11646626000000E+01 0.85244113011042E+00
 s    1 1.00
 0.32723041000000E+00 0.10000000000000E+01
 s    1 1.00
 0.10307241000000E+00 0.10000000000000E+01
 p    1 1.00
 0.80000000000000E+00 0.10000000000000E+01
 
    9 0
 s    3 1.00
 0.34061341000000E+02 0.25439307208879E-01
 0.51235746000000E+01 0.19008594890375E+00
 0.11646626000000E+01 0.85244113011042E+00
 s    1 1.00
 0.32723041000000E+00 0.10000000000000E+01
 s    1 1.00
 0.10307241000000E+00 0.10000000000000E+01
 p    1 1.00
 0.80000000000000E+00 0.10000000000000E+01
 
   10 0
 s    3 1.00
 0.34061341000000E+02 0.25439307208879E-01
 0.51235746000000E+01 0.19008594890375E+00
 0.11646626000000E+01 0.85244113011042E+00
 s    1 1.00
 0.32723041000000E+00 0.10000000000000E+01
 s    1 1.00
 0.10307241000000E+00 0.10000000000000E+01
 p    1 1.00
 0.80000000000000E+00 0.10000000000000E+01
 
   11 0
 s    3 1.00
 0.34061341000000E+02 0.25439307208879E-01
 0.51235746000000E+01 0.19008594890375E+00
 0.11646626000000E+01 0.85244113011042E+00
 s    1 1.00
 0.32723041000000E+00 0.10000000000000E+01
 s    1 1.00
 0.10307241000000E+00 0.10000000000000E+01
 p    1 1.00
 0.80000000000000E+00 0.10000000000000E+01
 
   12 0
 s    3 1.00
 0.34061341000000E+02 0.25439307208879E-01
 0.51235746000000E+01 0.19008594890375E+00
 0.11646626000000E+01 0.85244113011042E+00
 s    1 1.00
 0.32723041000000E+00 0.10000000000000E+01
 s    1 1.00
 0.10307241000000E+00 0.10000000000000E+01
 p    1 1.00
 0.80000000000000E+00 0.10000000000000E+01
 
   13 0
 s    3 1.00
 0.34061341000000E+02 0.25439307208879E-01
 0.51235746000000E+01 0.19008594890375E+00
 0.11646626000000E+01 0.85244113011042E+00
 s    1 1.00
 0.32723041000000E+00 0.10000000000000E+01
 s    1 1.00
 0.10307241000000E+00 0.10000000000000E+01
 p    1 1.00
 0.80000000000000E+00 0.10000000000000E+01
 
   14 0
 s    3 1.00
 0.34061341000000E+02 0.25439307208879E-01
 0.51235746000000E+01 0.19008594890375E+00
 0.11646626000000E+01 0.85244113011042E+00
 s    1 1.00
 0.32723041000000E+00 0.10000000000000E+01
 s    1 1.00
 0.10307241000000E+00 0.10000000000000E+01
 p    1 1.00
 0.80000000000000E+00 0.10000000000000E+01
 
   15 0
 s    3 1.00
 0.34061341000000E+02 0.25439307208879E-01
 0.51235746000000E+01 0.19008594890375E+00
 0.11646626000000E+01 0.85244113011042E+00
 s    1 1.00
 0.32723041000000E+00 0.10000000000000E+01
 s    1 1.00
 0.10307241000000E+00 0.10000000000000E+01
 p    1 1.00
 0.80000000000000E+00 0.10000000000000E+01
 
   16 0
 s    3 1.00
 0.34061341000000E+02 0.25439307208879E-01
 0.51235746000000E+01 0.19008594890375E+00
 0.11646626000000E+01 0.85244113011042E+00
 s    1 1.00
 0.32723041000000E+00 0.10000000000000E+01
 s    1 1.00
 0.10307241000000E+00 0.10000000000000E+01
 p    1 1.00
 0.80000000000000E+00 0.10000000000000E+01
 
   17 0
 s    3 1.00
 0.34061341000000E+02 0.25439307208879E-01
 0.51235746000000E+01 0.19008594890375E+00
 0.11646626000000E+01 0.85244113011042E+00
 s    1 1.00
 0.32723041000000E+00 0.10000000000000E+01
 s    1 1.00
 0.10307241000000E+00 0.10000000000000E+01
 p    1 1.00
 0.80000000000000E+00 0.10000000000000E+01
 
   18 0
 s    3 1.00
 0.34061341000000E+02 0.25439307208879E-01
 0.51235746000000E+01 0.19008594890375E+00
 0.11646626000000E+01 0.85244113011042E+00
 s    1 1.00
 0.32723041000000E+00 0.10000000000000E+01
 s    1 1.00
 0.10307241000000E+00 0.10000000000000E+01
 p    1 1.00
 0.80000000000000E+00 0.10000000000000E+01
 
[MO]
 Sym=     1a   
 Ene= -.19131100010851E+02
 Spin= Alpha
 Occup= 2.000000
     1 -.61688382987975E-06
     2 0.31601711484122E-05
     3 -.69915151201938E-04
     4 -.73024021293357E-04
     5 0.15581321398641E-02
     6 0.41089430641493E-04
     7 -.40725281442612E-05
     8 0.76007899813100E-05
     9 -.12999031485000E-03
    10 0.89627292048184E-04
    11 -.34064497410952E-04
    12 -.12011357701606E-02
    13 -.30552735093244E-03
    14 -.87569093530782E-03
    15 -.30787556613594E-04
    16 0.22339063081745E-04
    17 0.84484935318493E-05
    18 0.34800519351187E-05
    19 -.42487971798191E-05
    20 0.17341704703576E-04
    21 0.88093061051327E-04
    22 -.37905010412893E-04
    23 -.50188050638434E-04
    24 -.39526876960356E-04
    25 0.63512003538693E-06
    26 -.49468633456321E-04
    27 0.10513641840040E-05
    28 0.19898673213356E-05
    29 -.17057796316778E-05
    30 -.42943658526788E-05
    31 -.24958148654311E-05
    32 -.91388013646428E-06
    33 0.28838127819538E-05
    34 -.17387229259597E-06
    35 0.32024236631039E-05
    36 -.32647747102899E-05
    37 -.21328182836166E-06
    38 0.80324217654180E-06
    39 0.40266839358686E-04
    40 -.66316658656156E-04
    41 -.12042348979184E-02
    42 0.44388998029064E-05
    43 -.23910169777084E-05
    44 0.79948953135690E-05
    45 0.41565660456812E-04
    46 -.43075449610716E-04
    47 -.21644884930378E-05
    48 0.91688428885461E-03
    49 -.30378114784014E-03
    50 -.47229005191799E-03
    51 -.10489504912970E-05
    52 0.17800416865497E-05
    53 -.73109119525280E-06
    54 0.59206854765784E-05
    55 -.73715966119113E-05
    56 0.30648969435613E-05
    57 -.63129756366028E-06
    58 0.10684791613643E-04
    59 -.10053494049982E-04
    60 -.29772236319475E-04
    61 0.82380610748213E-05
    62 -.24521848138300E-04
    63 0.12438742914676E-05
    64 -.69523208438712E-06
    65 -.16628006881049E-05
    66 -.34558516209784E-05
    67 0.90346845696468E-06
    68 0.11010606180093E-05
    69 0.17870191382668E-05
    70 0.29283263532399E-07
    71 0.11298206049724E-05
    72 0.25580847582181E-05
    73 0.13968736200257E-04
    74 0.14578135077624E-04
    75 0.34430657601861E-04
    76 -.12932007521380E-03
    77 0.59225701447391E-03
    78 0.97161746891579E-06
    79 0.96722662690660E-05
    80 0.89055090250097E-06
    81 -.17445771545324E-04
    82 -.36609519936365E-04
    83 0.13011444285672E-04
    84 -.23431386531830E-03
    85 0.11227860916399E-03
    86 0.16568166713881E-03
    87 -.12902881423201E-05
    88 0.16886056974343E-05
    89 -.39831755511415E-06
    90 0.10228853012872E-05
    91 0.67699216323657E-06
    92 -.54013186726448E-06
    93 0.23133163851102E-05
    94 -.19711038040768E-05
    95 -.34221258103338E-06
    96 -.65827194128026E-05
    97 -.10162794351015E-04
    98 0.78329107408649E-05
    99 0.66229235695495E-06
   100 -.88384037996537E-06
   101 -.49223355981764E-06
   102 -.43630080424917E-06
   103 0.67477447784315E-06
   104 0.25308206935135E-06
   105 -.45225763442873E-06
   106 0.51102182467393E-06
   107 0.40731855098402E-06
   108 -.13605523044444E-05
   109 -.76550019926344E-06
   110 0.45929462179485E-05
   111 -.22378638484749E-03
   112 0.17473010782533E-02
   113 -.21591911476832E-02
   114 0.45988710590220E-04
   115 0.13487445030907E-04
   116 0.25179043090610E-04
   117 -.10753061050213E-02
   118 -.11309735375085E-03
   119 -.37993015190238E-03
   120 0.15713537544797E-02
   121 -.34230544144591E-03
   122 -.10146583206217E-03
   123 0.30592030525917E-04
   124 -.21204230447654E-04
   125 -.93878000782632E-05
   126 -.12658516416973E-04
   127 -.24862562336728E-05
   128 -.40136998893648E-05
   129 0.70557132949785E-04
   130 -.71251347560777E-06
   131 -.69844619474177E-04
   132 0.10425930590978E-03
   133 0.11042585830970E-03
   134 0.19006015040485E-05
   135 -.50645979893438E-06
   136 0.50771394642116E-05
   137 -.35849906282371E-05
   138 0.56848863836316E-06
   139 -.47413466900948E-05
   140 -.91682000306541E-06
   141 0.11099848460972E-06
   142 -.20703506938396E-05
   143 0.57265896491281E-05
   144 -.17715907239350E-05
   145 0.72486820539978E-05
   146 -.35439094674564E-04
   147 0.44474965855669E-03
   148 0.24299485387992E-03
   149 0.71771006099674E-02
   150 -.70713718028274E-04
   151 0.41321891164587E-04
   152 0.16359193608630E-04
   153 -.58605013428263E-03
   154 -.27931061647883E-04
   155 -.26018504187130E-03
   156 -.13895817089719E-02
   157 0.38591318669305E-02
   158 0.14077976952123E-02
   159 0.11317689152619E-03
   160 -.61469468682269E-04
   161 -.51707422843922E-04
   162 -.23271722273381E-04
   163 0.12104125007568E-04
   164 -.10827269462356E-04
   165 -.10770842201441E-02
   166 0.49586504873528E-03
   167 0.58121917140884E-03
   168 0.14502840771930E-03
   169 -.21436190013069E-03
   170 -.28417735215089E-04
   171 -.64290536449744E-05
   172 0.25889244921398E-04
   173 -.51284252200880E-05
   174 0.13264610607927E-04
   175 -.45803557256549E-04
   176 -.21979028765478E-04
   177 -.46391300192339E-05
   178 0.11069490338317E-04
   179 0.28859533211263E-04
   180 0.23889424403670E-05
   181 0.24693313604637E-04
   182 -.12714489859141E-03
   183 -.17524293647264E-02
   184 0.66589127655247E-02
   185 -.16842619869473E-01
   186 0.17778201864532E-03
   187 0.44320974389551E-04
   188 0.62796851315808E-04
   189 -.55466977021350E-02
   190 -.76136454337294E-03
   191 -.16111804248770E-02
   192 0.29546521092195E-03
   193 0.19448692704546E-02
   194 0.17485032412055E-02
   195 0.27297412922342E-03
   196 -.14578195684943E-03
   197 -.12719217237399E-03
   198 0.50828926361100E-05
   199 0.88809469164070E-04
   200 0.23258970293822E-05
   201 0.15939660233075E-02
   202 -.72417543555139E-03
   203 -.86979058775612E-03
   204 0.52662503101491E-03
   205 0.92365822834708E-03
   206 0.23134585562082E-03
   207 -.17832580633983E-03
   208 0.22613066634699E-04
   209 0.61871286356277E-04
   210 0.12089886379526E-03
   211 -.36441184355849E-04
   212 -.11475083153470E-03
   213 0.11835031127574E-03
   214 0.61025718508973E-05
   215 0.31741790245903E-04
   216 -.17756491671187E-04
   217 0.43510267263443E+00
   218 0.63953623334002E+00
   219 0.36209474328162E-01
   220 -.27954179205955E-01
   221 0.11735679862741E-01
   222 0.13022529974804E-02
   223 -.10151505986700E-02
   224 0.11459563499071E-02
   225 -.42415069543981E-02
   226 0.14458990514689E-02
   227 -.21542037172129E-02
   228 0.13019502967540E-02
   229 -.38677117772594E-03
   230 0.44170264584474E-03
   231 0.10152395755650E-03
   232 -.24912375814819E-04
   233 -.76611581741682E-04
   234 0.60637294460557E-04
   235 0.19045965200899E-04
   236 -.68740958459572E-04
   237 -.70108092782655E-03
   238 0.24136393789182E-03
   239 0.45971698993472E-03
   240 -.29804771664420E-03
   241 -.17224287634869E-03
   242 0.30723756344285E-03
   243 -.78463425870695E-04
   244 0.12937870994389E-06
   245 0.47420261307497E-04
   246 0.70075930921378E-04
   247 -.89540299076715E-05
   248 -.35828825993933E-04
   249 0.35193801475255E-04
   250 0.87804501535061E-05
   251 -.27792130682687E-04
   252 -.35171296340378E-04
   253 0.90896675008557E-05
   254 -.12161594841484E-03
   255 -.56424540939850E-03
   256 0.19465576987280E-04
   257 -.19250492510358E-04
   258 -.11324690606015E-07
   259 -.48912676457192E-05
   260 0.13317933459038E-04
   261 0.72059442353438E-03
   262 -.48686228800814E-05
   263 0.17988099416602E-04
   264 0.25864490139603E-05
   265 -.32374245818368E-04
   266 0.25222981024796E-03
   267 0.97829430292462E-04
   268 0.17782225412106E-04
   269 0.22468185812541E-05
   270 0.16722710607260E-04
   271 0.51817643211378E-05
   272 -.57888034176234E-04
   273 -.43058319384442E-03
   274 -.49484605673001E-05
   275 -.61155331721343E-05
   276 -.97096768527776E-05
   277 0.50120180964817E-05
   278 -.18772996530151E-03
   279 -.18536130442612E-03
   280 -.17116536470025E-04
   281 0.31179268667364E-04
   282 0.10184942613419E-04
   283 -.19204259442067E-04
   284 0.45135967025363E-03
   285 -.36339492519695E-03
   286 -.69982292485209E-04
   287 0.18240177031528E-04
   288 -.61670339205919E-04
   289 -.83091718407748E-04
   290 -.81049584159497E-03
   291 0.94312325502993E-03
   292 -.14063228265775E-03
   293 -.25467352156432E-04
   294 -.94200470261387E-04
   295 -.47939485268706E-04
   296 -.54309472026508E-03
   297 0.10578908438932E-02
   298 -.20233523976548E-03
   299 -.16397657751354E-04
   300 -.43265129552114E-04
   301 -.31524729188217E-05
   302 0.88311863248382E-03
   303 0.23381986749005E-02
   304 0.11529650399720E-03
   305 -.30378002843306E-04
   306 -.82887089350370E-04
   307 0.31566819408409E-04
   308 0.95971846591248E-03
   309 0.17493129067406E-02
   310 -.49801208603014E-04
   311 -.91567148408873E-04
   312 0.70392503583791E-05
   313 0.87176411193908E-03
   314 0.12583368773438E-02
   315 -.97268747917902E-03
   316 0.33744379693793E-03
   317 0.76846664103458E-03
   318 -.46704387240919E-03
 Sym=     2a   
 Ene= -.19109293789315E+02
 Spin= Alpha
 Occup= 2.000000
     1 0.60481122572479E-05
     2 -.29918452748923E-04
     3 0.39517575217584E-03
     4 0.45730158169325E-04
     5 0.71213206806273E-02
     6 0.67243326107972E-04
     7 0.10978272128722E-03
     8 -.61444354093617E-04
     9 0.13228408819296E-03
    10 0.21336483307287E-03
    11 0.13106449814639E-03
    12 0.93553904816666E-03
    13 0.77134004029263E-03
    14 -.19693433506045E-02
    15 -.34116926790229E-04
    16 0.71793579264731E-04
    17 -.37676652474503E-04
    18 0.53594818851006E-04
    19 -.91271061165481E-05
    20 -.28412736587942E-04
    21 0.38033703488040E-03
    22 -.59720728559217E-03
    23 0.21687025071177E-03
    24 -.63392329196142E-03
    25 0.23792386870068E-03
    26 0.27560596821619E-03
    27 0.12295693119391E-04
    28 0.23906602696619E-04
    29 -.25896736847672E-04
    30 -.73030121998550E-05
    31 0.83832161228591E-05
    32 0.11713324656408E-04
    33 -.91933911874060E-05
    34 -.40457289367291E-04
    35 0.23030793735683E-04
    36 0.32993711860040E-04
    37 0.20965314993395E-04
    38 -.10947726727595E-03
    39 -.19367102179199E-02
    40 0.75303615299095E-02
    41 -.16028937893952E-01
    42 -.19335270271743E-04
    43 -.17132871647755E-03
    44 -.67657758536087E-04
    45 0.23770080483794E-02
    46 0.51999208899332E-02
    47 0.52539058916552E-03
    48 0.12507366017582E-02
    49 -.17534958698817E-02
    50 -.22346990514499E-02
    51 -.62500236216875E-04
    52 0.19862907284923E-03
    53 -.13612883663236E-03
    54 0.21400443081015E-03
    55 -.29953817602897E-04
    56 -.71678487411792E-04
    57 -.59458319833939E-03
    58 0.14488485122637E-02
    59 -.85426531392432E-03
    60 0.12450790496746E-02
    61 -.21719119255361E-03
    62 0.21108951819841E-03
    63 -.10415691169366E-03
    64 0.10095568130127E-03
    65 0.13490140369609E-04
    66 0.18330944341874E-03
    67 -.21394661375067E-04
    68 0.34008494163120E-05
    69 -.43568282494655E-04
    70 -.11405159828760E-03
    71 -.21499771951788E-04
    72 -.30901974749715E-04
    73 0.43510244063831E+00
    74 0.63951783059289E+00
    75 0.36400226561256E-01
    76 -.28573512458715E-01
    77 0.12652800057563E-01
    78 -.16197218204042E-02
    79 -.81116796578398E-03
    80 0.94484368961754E-03
    81 0.36363628830001E-02
    82 0.31754132802755E-02
    83 -.18405013550080E-02
    84 -.15150312569655E-02
    85 -.59628380803543E-03
    86 0.79779430868735E-03
    87 -.35317547968941E-04
    88 0.10416487801595E-03
    89 -.68847330047007E-04
    90 0.39811625368532E-04
    91 -.69574533031005E-04
    92 0.33458155548950E-04
    93 0.20298782195923E-03
    94 -.63165490991964E-03
    95 0.42866708796041E-03
    96 -.34363076377500E-03
    97 0.35866131372507E-03
    98 -.12762885840884E-03
    99 -.51791689027015E-04
   100 0.41418599111057E-04
   101 0.34910462934061E-04
   102 0.76711455041606E-04
   103 -.75168753645528E-05
   104 -.16022136110453E-04
   105 -.72256126412453E-05
   106 -.48052006522528E-04
   107 -.30815164837476E-04
   108 0.27519247721785E-04
   109 0.47019413288134E-06
   110 -.18059689623011E-05
   111 -.70994107905839E-04
   112 0.15996390991613E-04
   113 -.15224600003557E-02
   114 -.12129297373391E-04
   115 -.24394409622981E-04
   116 -.20146140194679E-04
   117 0.18976096062261E-03
   118 0.36957873751339E-03
   119 0.28364838339164E-03
   120 -.23166193598718E-03
   121 0.17742954666941E-03
   122 0.72213534864360E-03
   123 -.27163861173027E-04
   124 0.70528186283103E-05
   125 0.20111042544716E-04
   126 -.22544595877443E-05
   127 -.16141130193475E-04
   128 -.62001666242940E-05
   129 0.12039669588848E-03
   130 -.15574543994042E-03
   131 0.35348744051947E-04
   132 0.52259871061551E-04
   133 0.14586783967372E-04
   134 -.20861279628951E-04
   135 0.25901412211833E-06
   136 -.94116161715325E-06
   137 0.46624423711093E-05
   138 -.44722363019774E-05
   139 -.52070231295824E-05
   140 -.11142464721804E-04
   141 0.41247323914640E-05
   142 0.64697239418434E-05
   143 0.48871418720188E-05
   144 0.36588142421145E-05
   145 0.23951544894599E-05
   146 -.12794370013190E-04
   147 0.46438212773784E-03
   148 -.24746399813539E-02
   149 0.53155870817560E-02
   150 -.25466121956600E-04
   151 0.43010069795562E-04
   152 0.12350073488163E-04
   153 0.15358496631283E-03
   154 -.41880296771268E-03
   155 -.20346896355980E-03
   156 0.14705251136586E-02
   157 0.19100937806100E-02
   158 -.13318963156959E-02
   159 -.41667310404107E-04
   160 0.48851344672970E-04
   161 -.71840342688632E-05
   162 -.14847828148768E-04
   163 0.20203565368350E-04
   164 -.42772112174922E-05
   165 0.18305959575435E-03
   166 -.29378213697194E-03
   167 0.11072254121758E-03
   168 0.10849755601210E-03
   169 -.11207259152065E-04
   170 0.41059516524353E-05
   171 -.47534624012885E-05
   172 -.10617509147365E-05
   173 0.61562274158140E-05
   174 0.14312614519887E-04
   175 -.19045368376640E-05
   176 -.72377548107461E-06
   177 -.79351754852249E-05
   178 0.33290251699781E-05
   179 -.75356703109501E-05
   180 -.96870996674724E-06
   181 0.11203757813241E-05
   182 -.48749371437341E-05
   183 -.16290853319019E-03
   184 0.13334092618012E-02
   185 -.47287648906347E-02
   186 -.16881455830839E-04
   187 -.28372276115433E-05
   188 0.83480638772835E-05
   189 0.66398105771208E-03
   190 -.26937805001848E-03
   191 -.29168230272489E-03
   192 -.11598055104716E-02
   193 -.26911961100053E-04
   194 0.15259474582106E-02
   195 0.15795447103411E-04
   196 -.11184470643661E-04
   197 -.46109764597509E-05
   198 -.10183166257569E-04
   199 -.17212559297081E-04
   200 0.17412584884413E-05
   201 -.12932197902185E-03
   202 0.13872784514218E-03
   203 -.94058661203379E-05
   204 -.82279716779955E-04
   205 -.88932407936564E-04
   206 0.35000377615506E-04
   207 -.14683986901339E-05
   208 0.65476821123618E-05
   209 0.61180663851504E-05
   210 0.68287736215319E-05
   211 -.70608362899062E-05
   212 0.57206284497515E-06
   213 -.48587100480054E-05
   214 -.17238010890741E-05
   215 -.87803102418068E-05
   216 0.81541069073716E-05
   217 -.12584279100473E-04
   218 -.25681810105620E-04
   219 0.46611370859698E-04
   220 -.14694567412020E-03
   221 0.80677665015081E-03
   222 -.71675725406724E-05
   223 -.64291125249585E-05
   224 -.29530787803216E-04
   225 0.98495028397900E-04
   226 0.49205268343504E-04
   227 0.12613439448748E-03
   228 0.42806304393301E-03
   229 0.34391397424340E-04
   230 -.32586827036344E-03
   231 -.63208650873375E-05
   232 0.29096218362505E-05
   233 0.34112432510869E-05
   234 -.80832941922249E-06
   235 0.10143927817678E-05
   236 0.48979474886334E-06
   237 0.36626699715927E-04
   238 -.21796241283433E-04
   239 -.14830458432495E-04
   240 0.13974457607477E-05
   241 0.77736174702863E-05
   242 0.57473644725693E-05
   243 -.91525083708728E-06
   244 -.64684574981495E-06
   245 0.49483902193032E-07
   246 0.38145863819390E-06
   247 0.61588204148637E-06
   248 0.10217640105739E-05
   249 0.84647921472054E-06
   250 0.25195259903945E-06
   251 -.10881536320312E-05
   252 -.36118788669751E-06
   253 0.15122277221663E-03
   254 0.10869343552206E-02
   255 -.63377870930816E-03
   256 0.10671136679485E-03
   257 0.14597921585550E-03
   258 0.43251246299889E-04
   259 -.56029976822287E-04
   260 -.82349710096199E-03
   261 -.61752722136546E-04
   262 0.13025924043114E-03
   263 0.15131152036727E-03
   264 0.15953009188044E-04
   265 -.23704940659604E-04
   266 0.17032709240125E-02
   267 0.23213467806089E-02
   268 0.14999668213421E-05
   269 0.88562888383880E-04
   270 0.12715293500912E-03
   271 -.33919318777444E-05
   272 0.71512486485803E-03
   273 0.12752419321502E-02
   274 0.16695570533553E-04
   275 -.96584525994835E-04
   276 0.11949312890772E-03
   277 0.86793533381422E-03
   278 0.11955934091565E-02
   279 -.16079472025173E-02
   280 0.56643053707555E-03
   281 -.63290230016643E-03
   282 -.56550860346266E-03
   283 0.55372955324206E-04
   284 -.80339113476852E-03
   285 0.42074759159614E-04
   286 -.93426130747583E-05
   287 0.20319135906316E-04
   288 0.18747671513148E-03
   289 -.60671066873858E-06
   290 -.26984616865033E-03
   291 -.96259373163444E-03
   292 -.80620669153109E-05
   293 -.10983366508652E-04
   294 0.54424207804936E-04
   295 0.18165565258591E-04
   296 0.44413019439850E-03
   297 0.72523196892841E-03
   298 0.77886638231526E-04
   299 0.64160742827030E-04
   300 -.52282737400842E-04
   301 -.12066700962703E-04
   302 -.18135154960254E-03
   303 0.15256168778142E-02
   304 -.13356422333879E-05
   305 0.77250186462079E-04
   306 -.27908721011467E-04
   307 -.12743994622811E-04
   308 0.61252986027469E-04
   309 -.17224913060485E-03
   310 0.13370082431474E-04
   311 0.12706900749701E-04
   312 0.39158408713746E-05
   313 -.88875145997631E-05
   314 0.11033369948575E-03
   315 0.14034268156809E-03