[Molden Format]
[Title]
                                                                                
[Atoms] AU
 c     1    6 0.83242707683616E+00 -.19856865454204E+01 -.29288676390525E+00
 c     2    6 -.17770122684636E+01 -.20909044610328E+01 -.31722889945118E+00
 c     3    6 -.32187114331146E+01 0.87473954815100E-02 0.42342583231736E+00
 c     4    6 -.19528622005546E+01 0.22179715989927E+01 0.11737189844908E+01
 c     5    6 0.65361336461025E+00 0.23075755950619E+01 0.11925855123705E+01
 c     6    6 0.20921814900021E+01 0.21185866355579E+00 0.46454997573774E+00
 c     7    6 0.48688692731372E+01 0.40456953739584E+00 0.54440340185008E+00
 o     8    8 0.60503488998608E+01 0.22522205615748E+01 0.11917178193585E+01
 o     9    8 0.60615052693341E+01 -.17517654683523E+01 -.19219221568840E+00
 n    10    7 -.58240115450773E+01 -.64186560087350E-01 0.32964286236916E+00
 h    11    1 0.19153508598271E+01 -.36221436428124E+01 -.86173307371718E+00
 h    12    1 -.27248449064003E+01 -.38073987345265E+01 -.91056722082048E+00
 h    13    1 -.30391600864038E+01 0.38591456950532E+01 0.17428086433894E+01
 h    14    1 0.16263192440180E+01 0.40079737433950E+01 0.17789768678085E+01
 h    15    1 0.78551223334009E+01 -.14065794240405E+01 -.56420363192670E-01
 h    16    1 -.67700212952717E+01 0.12361715549948E+01 0.13450093843383E+01
 h    17    1 -.66491140757410E+01 -.17775713989596E+01 0.30483388046885E+00
[GTO]
    1 0
 s    6 1.00
 0.13575349682000E+05 0.60645503603591E-03
 0.20352333680000E+04 0.46979088884982E-02
 0.46322562359000E+03 0.24332477647552E-01
 0.13120019598000E+03 0.97399968307759E-01
 0.42853015891000E+02 0.30195584253780E+00
 0.15584185766000E+02 0.66233609137875E+00
 s    2 1.00
 0.62067138508000E+01 0.65595308539952E+00
 0.25764896527000E+01 0.37585633285142E+00
 s    1 1.00
 0.57696339419000E+00 0.10000000000000E+01
 s    1 1.00
 0.22972831358000E+00 0.10000000000000E+01
 s    1 1.00
 0.95164440028000E-01 0.10000000000000E+01
 p    4 1.00
 0.34697232244000E+02 0.11327220003114E-01
 0.79582622826000E+01 0.76169659202087E-01
 0.23780826883000E+01 0.30192252202676E+00
 0.81433208183000E+00 0.72785027349547E+00
 p    1 1.00
 0.28887547253000E+00 0.10000000000000E+01
 p    1 1.00
 0.10056823671000E+00 0.10000000000000E+01
 d    1 1.00
 0.10970000000000E+01 0.10000000000000E+01
 d    1 1.00
 0.31800000000000E+00 0.10000000000000E+01
 f    1 1.00
 0.76100000000000E+00 0.10000000000000E+01
 
    2 0
 s    6 1.00
 0.13575349682000E+05 0.60645503603591E-03
 0.20352333680000E+04 0.46979088884982E-02
 0.46322562359000E+03 0.24332477647552E-01
 0.13120019598000E+03 0.97399968307759E-01
 0.42853015891000E+02 0.30195584253780E+00
 0.15584185766000E+02 0.66233609137875E+00
 s    2 1.00
 0.62067138508000E+01 0.65595308539952E+00
 0.25764896527000E+01 0.37585633285142E+00
 s    1 1.00
 0.57696339419000E+00 0.10000000000000E+01
 s    1 1.00
 0.22972831358000E+00 0.10000000000000E+01
 s    1 1.00
 0.95164440028000E-01 0.10000000000000E+01
 p    4 1.00
 0.34697232244000E+02 0.11327220003114E-01
 0.79582622826000E+01 0.76169659202087E-01
 0.23780826883000E+01 0.30192252202676E+00
 0.81433208183000E+00 0.72785027349547E+00
 p    1 1.00
 0.28887547253000E+00 0.10000000000000E+01
 p    1 1.00
 0.10056823671000E+00 0.10000000000000E+01
 d    1 1.00
 0.10970000000000E+01 0.10000000000000E+01
 d    1 1.00
 0.31800000000000E+00 0.10000000000000E+01
 f    1 1.00
 0.76100000000000E+00 0.10000000000000E+01
 
    3 0
 s    6 1.00
 0.13575349682000E+05 0.60645503603591E-03
 0.20352333680000E+04 0.46979088884982E-02
 0.46322562359000E+03 0.24332477647552E-01
 0.13120019598000E+03 0.97399968307759E-01
 0.42853015891000E+02 0.30195584253780E+00
 0.15584185766000E+02 0.66233609137875E+00
 s    2 1.00
 0.62067138508000E+01 0.65595308539952E+00
 0.25764896527000E+01 0.37585633285142E+00
 s    1 1.00
 0.57696339419000E+00 0.10000000000000E+01
 s    1 1.00
 0.22972831358000E+00 0.10000000000000E+01
 s    1 1.00
 0.95164440028000E-01 0.10000000000000E+01
 p    4 1.00
 0.34697232244000E+02 0.11327220003114E-01
 0.79582622826000E+01 0.76169659202087E-01
 0.23780826883000E+01 0.30192252202676E+00
 0.81433208183000E+00 0.72785027349547E+00
 p    1 1.00
 0.28887547253000E+00 0.10000000000000E+01
 p    1 1.00
 0.10056823671000E+00 0.10000000000000E+01
 d    1 1.00
 0.10970000000000E+01 0.10000000000000E+01
 d    1 1.00
 0.31800000000000E+00 0.10000000000000E+01
 f    1 1.00
 0.76100000000000E+00 0.10000000000000E+01
 
    4 0
 s    6 1.00
 0.13575349682000E+05 0.60645503603591E-03
 0.20352333680000E+04 0.46979088884982E-02
 0.46322562359000E+03 0.24332477647552E-01
 0.13120019598000E+03 0.97399968307759E-01
 0.42853015891000E+02 0.30195584253780E+00
 0.15584185766000E+02 0.66233609137875E+00
 s    2 1.00
 0.62067138508000E+01 0.65595308539952E+00
 0.25764896527000E+01 0.37585633285142E+00
 s    1 1.00
 0.57696339419000E+00 0.10000000000000E+01
 s    1 1.00
 0.22972831358000E+00 0.10000000000000E+01
 s    1 1.00
 0.95164440028000E-01 0.10000000000000E+01
 p    4 1.00
 0.34697232244000E+02 0.11327220003114E-01
 0.79582622826000E+01 0.76169659202087E-01
 0.23780826883000E+01 0.30192252202676E+00
 0.81433208183000E+00 0.72785027349547E+00
 p    1 1.00
 0.28887547253000E+00 0.10000000000000E+01
 p    1 1.00
 0.10056823671000E+00 0.10000000000000E+01
 d    1 1.00
 0.10970000000000E+01 0.10000000000000E+01
 d    1 1.00
 0.31800000000000E+00 0.10000000000000E+01
 f    1 1.00
 0.76100000000000E+00 0.10000000000000E+01
 
    5 0
 s    6 1.00
 0.13575349682000E+05 0.60645503603591E-03
 0.20352333680000E+04 0.46979088884982E-02
 0.46322562359000E+03 0.24332477647552E-01
 0.13120019598000E+03 0.97399968307759E-01
 0.42853015891000E+02 0.30195584253780E+00
 0.15584185766000E+02 0.66233609137875E+00
 s    2 1.00
 0.62067138508000E+01 0.65595308539952E+00
 0.25764896527000E+01 0.37585633285142E+00
 s    1 1.00
 0.57696339419000E+00 0.10000000000000E+01
 s    1 1.00
 0.22972831358000E+00 0.10000000000000E+01
 s    1 1.00
 0.95164440028000E-01 0.10000000000000E+01
 p    4 1.00
 0.34697232244000E+02 0.11327220003114E-01
 0.79582622826000E+01 0.76169659202087E-01
 0.23780826883000E+01 0.30192252202676E+00
 0.81433208183000E+00 0.72785027349547E+00
 p    1 1.00
 0.28887547253000E+00 0.10000000000000E+01
 p    1 1.00
 0.10056823671000E+00 0.10000000000000E+01
 d    1 1.00
 0.10970000000000E+01 0.10000000000000E+01
 d    1 1.00
 0.31800000000000E+00 0.10000000000000E+01
 f    1 1.00
 0.76100000000000E+00 0.10000000000000E+01
 
    6 0
 s    6 1.00
 0.13575349682000E+05 0.60645503603591E-03
 0.20352333680000E+04 0.46979088884982E-02
 0.46322562359000E+03 0.24332477647552E-01
 0.13120019598000E+03 0.97399968307759E-01
 0.42853015891000E+02 0.30195584253780E+00
 0.15584185766000E+02 0.66233609137875E+00
 s    2 1.00
 0.62067138508000E+01 0.65595308539952E+00
 0.25764896527000E+01 0.37585633285142E+00
 s    1 1.00
 0.57696339419000E+00 0.10000000000000E+01
 s    1 1.00
 0.22972831358000E+00 0.10000000000000E+01
 s    1 1.00
 0.95164440028000E-01 0.10000000000000E+01
 p    4 1.00
 0.34697232244000E+02 0.11327220003114E-01
 0.79582622826000E+01 0.76169659202087E-01
 0.23780826883000E+01 0.30192252202676E+00
 0.81433208183000E+00 0.72785027349547E+00
 p    1 1.00
 0.28887547253000E+00 0.10000000000000E+01
 p    1 1.00
 0.10056823671000E+00 0.10000000000000E+01
 d    1 1.00
 0.10970000000000E+01 0.10000000000000E+01
 d    1 1.00
 0.31800000000000E+00 0.10000000000000E+01
 f    1 1.00
 0.76100000000000E+00 0.10000000000000E+01
 
    7 0
 s    6 1.00
 0.13575349682000E+05 0.60645503603591E-03
 0.20352333680000E+04 0.46979088884982E-02
 0.46322562359000E+03 0.24332477647552E-01
 0.13120019598000E+03 0.97399968307759E-01
 0.42853015891000E+02 0.30195584253780E+00
 0.15584185766000E+02 0.66233609137875E+00
 s    2 1.00
 0.62067138508000E+01 0.65595308539952E+00
 0.25764896527000E+01 0.37585633285142E+00
 s    1 1.00
 0.57696339419000E+00 0.10000000000000E+01
 s    1 1.00
 0.22972831358000E+00 0.10000000000000E+01
 s    1 1.00
 0.95164440028000E-01 0.10000000000000E+01
 p    4 1.00
 0.34697232244000E+02 0.11327220003114E-01
 0.79582622826000E+01 0.76169659202087E-01
 0.23780826883000E+01 0.30192252202676E+00
 0.81433208183000E+00 0.72785027349547E+00
 p    1 1.00
 0.28887547253000E+00 0.10000000000000E+01
 p    1 1.00
 0.10056823671000E+00 0.10000000000000E+01
 d    1 1.00
 0.10970000000000E+01 0.10000000000000E+01
 d    1 1.00
 0.31800000000000E+00 0.10000000000000E+01
 f    1 1.00
 0.76100000000000E+00 0.10000000000000E+01
 
    8 0
 s    6 1.00
 0.27032382631000E+05 0.57227335211155E-03
 0.40523871392000E+04 0.44353233492995E-02
 0.92232722710000E+03 0.23020107706038E-01
 0.26124070989000E+03 0.92822490667928E-01
 0.85354641351000E+02 0.29378500009671E+00
 0.31035035245000E+02 0.67401604501641E+00
 s    2 1.00
 0.12260860728000E+02 0.63839937025506E+00
 0.49987076005000E+01 0.39534587125718E+00
 s    1 1.00
 0.11703108158000E+01 0.10000000000000E+01
 s    1 1.00
 0.46474740994000E+00 0.10000000000000E+01
 s    1 1.00
 0.18504536357000E+00 0.10000000000000E+01
 p    4 1.00
 0.63274954801000E+02 0.12018332222616E-01
 0.14627049379000E+02 0.83005421790056E-01
 0.44501223456000E+01 0.31991743925964E+00
 0.15275799647000E+01 0.70715542916104E+00
 p    1 1.00
 0.52935117943000E+00 0.10000000000000E+01
 p    1 1.00
 0.17478421270000E+00 0.10000000000000E+01
 d    1 1.00
 0.23140000000000E+01 0.10000000000000E+01
 d    1 1.00
 0.64500000000000E+00 0.10000000000000E+01
 f    1 1.00
 0.14280000000000E+01 0.10000000000000E+01
 
    9 0
 s    6 1.00
 0.27032382631000E+05 0.57227335211155E-03
 0.40523871392000E+04 0.44353233492995E-02
 0.92232722710000E+03 0.23020107706038E-01
 0.26124070989000E+03 0.92822490667928E-01
 0.85354641351000E+02 0.29378500009671E+00
 0.31035035245000E+02 0.67401604501641E+00
 s    2 1.00
 0.12260860728000E+02 0.63839937025506E+00
 0.49987076005000E+01 0.39534587125718E+00
 s    1 1.00
 0.11703108158000E+01 0.10000000000000E+01
 s    1 1.00
 0.46474740994000E+00 0.10000000000000E+01
 s    1 1.00
 0.18504536357000E+00 0.10000000000000E+01
 p    4 1.00
 0.63274954801000E+02 0.12018332222616E-01
 0.14627049379000E+02 0.83005421790056E-01
 0.44501223456000E+01 0.31991743925964E+00
 0.15275799647000E+01 0.70715542916104E+00
 p    1 1.00
 0.52935117943000E+00 0.10000000000000E+01
 p    1 1.00
 0.17478421270000E+00 0.10000000000000E+01
 d    1 1.00
 0.23140000000000E+01 0.10000000000000E+01
 d    1 1.00
 0.64500000000000E+00 0.10000000000000E+01
 f    1 1.00
 0.14280000000000E+01 0.10000000000000E+01
 
   10 0
 s    6 1.00
 0.19730800647000E+05 0.58626402628763E-03
 0.29578958745000E+04 0.45428820586397E-02
 0.67322133595000E+03 0.23558413450084E-01
 0.19068249494000E+03 0.94709193292923E-01
 0.62295441898000E+02 0.29719784913376E+00
 0.22654161182000E+02 0.66916246895232E+00
 s    2 1.00
 0.89791477428000E+01 0.64596683630063E+00
 0.36863002370000E+01 0.38700574393705E+00
 s    1 1.00
 0.84660076805000E+00 0.10000000000000E+01
 s    1 1.00
 0.33647133771000E+00 0.10000000000000E+01
 s    1 1.00
 0.13647653675000E+00 0.10000000000000E+01
 p    4 1.00
 0.49200380510000E+02 0.11448825101764E-01
 0.11346790537000E+02 0.78422337970864E-01
 0.34273972411000E+01 0.30818094738830E+00
 0.11785525134000E+01 0.72027196368413E+00
 p    1 1.00
 0.41642204972000E+00 0.10000000000000E+01
 p    1 1.00
 0.14260826011000E+00 0.10000000000000E+01
 d    1 1.00
 0.16540000000000E+01 0.10000000000000E+01
 d    1 1.00
 0.46900000000000E+00 0.10000000000000E+01
 f    1 1.00
 0.10930000000000E+01 0.10000000000000E+01
 
   11 0
 s    3 1.00
 0.34061341000000E+02 0.25439307208879E-01
 0.51235746000000E+01 0.19008594890375E+00
 0.11646626000000E+01 0.85244113011042E+00
 s    1 1.00
 0.32723041000000E+00 0.10000000000000E+01
 s    1 1.00
 0.10307241000000E+00 0.10000000000000E+01
 p    1 1.00
 0.80000000000000E+00 0.10000000000000E+01
 
   12 0
 s    3 1.00
 0.34061341000000E+02 0.25439307208879E-01
 0.51235746000000E+01 0.19008594890375E+00
 0.11646626000000E+01 0.85244113011042E+00
 s    1 1.00
 0.32723041000000E+00 0.10000000000000E+01
 s    1 1.00
 0.10307241000000E+00 0.10000000000000E+01
 p    1 1.00
 0.80000000000000E+00 0.10000000000000E+01
 
   13 0
 s    3 1.00
 0.34061341000000E+02 0.25439307208879E-01
 0.51235746000000E+01 0.19008594890375E+00
 0.11646626000000E+01 0.85244113011042E+00
 s    1 1.00
 0.32723041000000E+00 0.10000000000000E+01
 s    1 1.00
 0.10307241000000E+00 0.10000000000000E+01
 p    1 1.00
 0.80000000000000E+00 0.10000000000000E+01
 
   14 0
 s    3 1.00
 0.34061341000000E+02 0.25439307208879E-01
 0.51235746000000E+01 0.19008594890375E+00
 0.11646626000000E+01 0.85244113011042E+00
 s    1 1.00
 0.32723041000000E+00 0.10000000000000E+01
 s    1 1.00
 0.10307241000000E+00 0.10000000000000E+01
 p    1 1.00
 0.80000000000000E+00 0.10000000000000E+01
 
   15 0
 s    3 1.00
 0.34061341000000E+02 0.25439307208879E-01
 0.51235746000000E+01 0.19008594890375E+00
 0.11646626000000E+01 0.85244113011042E+00
 s    1 1.00
 0.32723041000000E+00 0.10000000000000E+01
 s    1 1.00
 0.10307241000000E+00 0.10000000000000E+01
 p    1 1.00
 0.80000000000000E+00 0.10000000000000E+01
 
   16 0
 s    3 1.00
 0.34061341000000E+02 0.25439307208879E-01
 0.51235746000000E+01 0.19008594890375E+00
 0.11646626000000E+01 0.85244113011042E+00
 s    1 1.00
 0.32723041000000E+00 0.10000000000000E+01
 s    1 1.00
 0.10307241000000E+00 0.10000000000000E+01
 p    1 1.00
 0.80000000000000E+00 0.10000000000000E+01
 
   17 0
 s    3 1.00
 0.34061341000000E+02 0.25439307208879E-01
 0.51235746000000E+01 0.19008594890375E+00
 0.11646626000000E+01 0.85244113011042E+00
 s    1 1.00
 0.32723041000000E+00 0.10000000000000E+01
 s    1 1.00
 0.10307241000000E+00 0.10000000000000E+01
 p    1 1.00
 0.80000000000000E+00 0.10000000000000E+01
 
[MO]
 Sym=     1a   
 Ene= -.19162638935568E+02
 Spin= Alpha
 Occup= 2.000000
     1 0.10598592111107E-04
     2 -.51385509476883E-04
     3 0.31144751557120E-03
     4 0.36780329293379E-03
     5 -.39441068272153E-02
     6 -.12788405068826E-03
     7 -.56862102725930E-04
     8 -.18111289734751E-04
     9 0.61092454158565E-02
    10 0.29987154556884E-02
    11 0.10126262547761E-02
    12 -.63830509638592E-04
    13 -.23893128744570E-02
    14 -.83385103794915E-03
    15 0.12213808539952E-04
    16 0.57440365862984E-05
    17 -.17957845126250E-04
    18 0.53760200053576E-05
    19 0.25993189887324E-05
    20 0.10729593755778E-04
    21 -.86537189549693E-03
    22 0.76371996321327E-03
    23 0.10165193228367E-03
    24 0.85539774539661E-03
    25 0.30106652479877E-03
    26 0.29900958215474E-03
    27 0.24756914445147E-04
    28 -.22934377365680E-05
    29 -.11975362248703E-04
    30 -.31503458844067E-06
    31 0.15106563478028E-04
    32 0.43546747229286E-05
    33 -.32899851579057E-04
    34 -.12029593869350E-04
    35 0.11711959703043E-04
    36 0.14779174787311E-04
    37 0.49453981079487E-05
    38 -.24213105280150E-04
    39 -.10120091562394E-03
    40 0.28745006087532E-02
    41 0.24339080720371E-02
    42 -.77739653565269E-04
    43 0.23056030100764E-04
    44 0.90268340108383E-05
    45 0.46351338921070E-02
    46 -.48050401515248E-03
    47 -.19289411492287E-03
    48 0.33682171562728E-03
    49 0.20062216615544E-02
    50 0.71760686388944E-03
    51 0.44435389635992E-04
    52 -.17806648672626E-04
    53 -.26628740963366E-04
    54 -.23432107094463E-05
    55 -.19308057834681E-05
    56 0.32645114612240E-05
    57 0.67546703787145E-03
    58 -.52808545661035E-03
    59 -.14738158126110E-03
    60 0.49631477629815E-03
    61 0.17147368729258E-03
    62 -.17469485095756E-03
    63 0.20388938780731E-04
    64 0.48043042094524E-05
    65 0.10736993031836E-05
    66 -.41977139930479E-05
    67 -.76013440986443E-05
    68 -.29847363778054E-05
    69 -.23156917868630E-04
    70 0.11556936204899E-05
    71 0.15442176002178E-05
    72 0.86307284483954E-05
    73 0.38280087336007E-05
    74 -.18737775371968E-04
    75 -.96475808266356E-04
    76 0.30004166293286E-02
    77 -.62033545879782E-02
    78 0.30343042246055E-05
    79 0.73044297113114E-05
    80 0.48785217531583E-05
    81 0.10668784922667E-02
    82 -.67477764519621E-03
    83 -.25377974471361E-03
    84 -.40946905674571E-02
    85 -.11405899950036E-02
    86 -.43618270402516E-03
    87 0.16492918590593E-04
    88 0.19614039399523E-05
    89 -.18454322530546E-04
    90 -.28872997896983E-05
    91 -.31353134297645E-05
    92 0.90079268548285E-05
    93 -.39565036323985E-03
    94 0.42732905810390E-03
    95 -.31678694864058E-04
    96 -.19065952653120E-03
    97 -.60658031647938E-04
    98 0.21112440876377E-03
    99 -.19349005914013E-05
   100 0.46700864936199E-07
   101 0.26349005423625E-05
   102 0.93415146261999E-05
   103 -.22835139213111E-05
   104 -.49381256690530E-06
   105 -.67455730749532E-05
   106 0.22208581361479E-05
   107 -.30412774690989E-05
   108 0.76637914197172E-05
   109 0.65366563291877E-05
   110 -.31957808527824E-04
   111 -.58209726762265E-04
   112 0.24609145263894E-02
   113 0.12006620190525E-02
   114 -.28781647699436E-04
   115 -.96154686305302E-05
   116 -.24868676663420E-05
   117 0.32601116808403E-02
   118 0.24709190132972E-03
   119 0.65080301303244E-04
   120 -.11377075671536E-02
   121 -.38303834179907E-02
   122 -.12725728060667E-02
   123 0.36378282020399E-04
   124 -.21656894923804E-04
   125 -.14721387096595E-04
   126 0.13359442992944E-04
   127 0.34614762332829E-05
   128 -.20987151921274E-05
   129 0.50305878216053E-03
   130 -.29775944965752E-03
   131 -.20529933250302E-03
   132 -.18716572190422E-03
   133 -.63922686449963E-04
   134 -.43785783838652E-04
   135 0.16300587840545E-04
   136 -.87918022592470E-05
   137 0.31817357677249E-06
   138 -.88664253827774E-06
   139 0.12956659012498E-04
   140 0.43472228295974E-05
   141 -.20982890952521E-04
   142 -.11612185146502E-05
   143 -.47740974773819E-05
   144 0.90020391851326E-05
   145 0.85711100079616E-05
   146 -.43836623104726E-04
   147 0.74334067221210E-03
   148 -.14037802979195E-02
   149 -.43385741826168E-02
   150 -.60757960790028E-04
   151 -.35212745248207E-04
   152 -.98448515922391E-05
   153 0.41106509513477E-02
   154 -.11621034040571E-02
   155 -.43076606300407E-03
   156 -.51763257402254E-02
   157 0.32555874356619E-02
   158 0.11158773694163E-02
   159 0.41326666969330E-04
   160 -.17948104390798E-04
   161 -.23378562578531E-04
   162 -.24808226388295E-04
   163 -.80473664537336E-05
   164 0.21143754771695E-05
   165 -.59449057727830E-03
   166 0.23923741867192E-03
   167 0.35525315860638E-03
   168 -.51083154888533E-03
   169 -.17458324383400E-03
   170 -.47273563969144E-04
   171 0.37501431491616E-04
   172 0.17744625191088E-04
   173 -.17157179385618E-05
   174 -.31777467200992E-04
   175 -.23809990587643E-04
   176 -.91558421145829E-05
   177 -.18535982840291E-04
   178 0.30776901256752E-08
   179 0.11457719279087E-04
   180 -.56511612729475E-05
   181 0.15950058694929E-04
   182 -.77886830424889E-04
   183 0.61904200087973E-03
   184 -.15675009602395E-02
   185 0.12019644395665E-01
   186 -.10490415927007E-03
   187 -.76126087005933E-04
   188 -.25840122953090E-04
   189 0.73914441512694E-02
   190 0.23528503996807E-02
   191 0.83203374692429E-03
   192 -.79988431865844E-03
   193 -.63413612152029E-03
   194 -.18673690901190E-03
   195 -.21286083823556E-04
   196 0.52074079333073E-04
   197 -.30787995509516E-04
   198 -.48431238429022E-04
   199 -.15838088653135E-04
   200 0.36969705892861E-04
   201 0.19557475017646E-02
   202 -.19213216234031E-02
   203 -.34425878361466E-04
   204 0.30674136762828E-04
   205 0.14838263890417E-04
   206 -.84819469442381E-03
   207 0.13689537723485E-04
   208 -.21524641763547E-04
   209 -.19047201508244E-04
   210 -.28972033100557E-05
   211 0.49478025943540E-04
   212 0.17436933229689E-04
   213 -.15469238848100E-04
   214 -.20599688638767E-04
   215 0.81175691824535E-05
   216 0.59057033933040E-05
   217 0.36090847290340E-04
   218 -.19623095445428E-03
   219 -.36497066458194E-03
   220 -.10040096779112E-02
   221 -.36896531113505E-02
   222 -.92160378889029E-04
   223 0.40605338305578E-05
   224 0.73817499286646E-06
   225 0.79635347984088E-02
   226 -.51795751192671E-02
   227 -.17400933523732E-02
   228 -.14206167545637E-02
   229 0.66944112865931E-02
   230 0.22930728875910E-02
   231 -.41061822808026E-04
   232 0.15304998523620E-03
   233 -.11198816242818E-03
   234 -.19449248094120E-03
   235 -.66072086894783E-04
   236 0.11806985834415E-03
   237 -.19245196250219E-02
   238 0.21861242982013E-02
   239 -.26160467317931E-03
   240 -.19395261538388E-02
   241 -.67904753069931E-03
   242 0.10920374659802E-02
   243 0.15766302153639E-04
   244 -.22061786899298E-04
   245 0.10314826020581E-03
   246 0.63024576638088E-04
   247 -.67283286478502E-04
   248 -.21702164621140E-04
   249 -.84177290659690E-04
   250 0.96882279605669E-04
   251 -.11668574832747E-03
   252 0.64566763813393E-04
   253 -.31952586004108E-04
   254 -.38121565952343E-04
   255 -.17580948317811E-03
   256 0.14240822572589E-02
   257 -.31237917918016E-02
   258 -.88494993661096E-04
   259 -.66569431658321E-04
   260 -.22992484424568E-04
   261 0.52261666073593E-03
   262 -.21755953876582E-03
   263 -.74619070539037E-04
   264 0.78365051061391E-03
   265 -.35271741164869E-03
   266 -.10860551803939E-03
   267 0.26230838161608E-04
   268 0.90796192482961E-05
   269 -.35310457409904E-04
   270 0.17375566194784E-05
   271 0.13975935408796E-05
   272 0.20148131652318E-04
   273 -.17403892721737E-03
   274 0.44848845009803E-04
   275 0.12919008220756E-03
   276 -.29156857366328E-04
   277 -.13304011755707E-04
   278 -.38217106745879E-04
   279 0.78697989603490E-05
   280 0.60923436195272E-05
   281 -.10740391002013E-04
   282 -.10409255888249E-04
   283 0.13150799104285E-05
   284 0.53022872124971E-06
   285 -.14918737850966E-06
   286 -.94888165957584E-05
   287 0.13879517910008E-04
   288 -.45125258599790E-05
   289 0.43509180572682E+00
   290 0.63948469971090E+00
   291 0.36766848185192E-01
   292 -.30431216791441E-01
   293 0.13056222906972E-01
   294 0.39802554941338E-03
   295 0.17781677210374E-02
   296 0.61760596985845E-03
   297 0.92062169285869E-03
   298 -.52559484590092E-02
   299 -.18107020187654E-02
   300 -.61749254313843E-03
   301 0.98019342511271E-03
   302 0.33332417098438E-03
   303 0.51402450688485E-04
   304 0.37654928324986E-04
   305 -.89057379013471E-04
   306 -.65867312053878E-04
   307 -.20933110138604E-04
   308 0.57126747270779E-04
   309 -.21208622002543E-03
   310 -.32568229772145E-03
   311 0.53776851774687E-03
   312 0.48194245092876E-03
   313 0.15784158944265E-03
   314 -.38715666119023E-03
   315 -.75096536078544E-04
   316 -.23638633933116E-05
   317 0.26166209542832E-04
   318 0.73429140332517E-04
   319 -.20651709078666E-04
   320 -.85771493863344E-05
   321 0.27323435395317E-04
   322 0.23823164620847E-04
   323 -.26528504564431E-04
   324 0.20464429850160E-04
   325 -.85134049189610E-06
   326 0.50678756354952E-05
   327 -.10642048196755E-03
   328 0.10358898477958E-02
   329 -.26963423217314E-02
   330 -.51717453998854E-05
   331 -.27230595199148E-06
   332 0.51052041418778E-05
   333 0.34803070369425E-03
   334 0.17885629145315E-05
   335 -.78355356381038E-05
   336 -.99857604207183E-03
   337 0.61715562967523E-04
   338 0.68325733843822E-04
   339 0.10911199242870E-04
   340 0.54297722901270E-05
   341 -.16340971532997E-04
   342 -.27074448580143E-06
   343 -.11772911934691E-07
   344 0.89192535059470E-05
   345 -.80186774635651E-06
   346 -.47682429661730E-04
   347 0.48484297408086E-04
   348 -.32924344864454E-05
   349 0.43568894923393E-05
   350 -.39750266940763E-04
   351 -.22586863396705E-05
   352 0.74936630396894E-06
   353 0.15820161603684E-06
   354 -.64208239427789E-06
   355 -.12422602769281E-06
   356 0.57203086779275E-06
   357 0.36724281114899E-05
   358 -.88115436974058E-06
   359 -.78428060835797E-06
   360 -.19249377617762E-05
   361 0.96117014322398E-04
   362 -.10519108628296E-03
   363 -.66312708566718E-03
   364 0.47186072792108E-04
   365 -.10776714184806E-04
   366 -.34915514352386E-05
   367 0.16432363662494E-04
   368 0.31097946003899E-03
   369 0.59736980693652E-03
   370 0.97202113502211E-04
   371 0.13895803546334E-04
   372 0.58830644617878E-05
   373 0.38254701303801E-05
   374 0.27983103063877E-03
   375 0.10778113059910E-02
   376 0.51986924723597E-04
   377 -.19300028019600E-04
   378 -.52499609947301E-05
   379 0.50092827032712E-05
   380 0.80883434312963E-03
   381 -.30029611064215E-03
   382 0.40211670716297E-04
   383 -.14720919227205E-03
   384 -.50426493134980E-04
   385 0.82294764868545E-03
   386 0.12374271131697E-02
   387 -.49671880854881E-03
   388 -.95429309029158E-03
   389 -.17154810042393E-03
   390 -.67881599395254E-04
   391 0.21111474396703E-04
   392 0.26127434749450E-04
   393 -.26196428540381E-03
   394 -.22747918674973E-06
   395 0.88626937243932E-05
   396 -.92742069636804E-05
   397 0.17617519046352E-04
   398 0.71181960600180E-04
   399 -.22811807342502E-03
   400 0.22725275984590E-05
   401 0.24003986499688E-05
   402 -.17304326214034E-04
 Sym=     2a   
 Ene= -.19101180982229E+02
 Spin= Alpha
 Occup= 2.000000
     1 0.31237318766912E-05
     2 -.15166636238305E-04
     3 -.16403366616756E-03
     4 0.28113155436023E-02
     5 -.24172184517105E-02
     6 -.90057146754926E-04
     7 -.22350570341149E-04
     8 -.56482869890728E-05
     9 0.32505995520513E-02
    10 0.19301681225377E-02
    11 0.64856577750618E-03
    12 -.46989401673788E-02
    13 -.23049903043443E-02
    14 -.80687921192052E-03
    15 0.17903657783510E-04
    16 0.49218077634166E-05
    17 -.22825465546926E-04
    18 0.20074688745545E-04
    19 0.76160358891790E-05
    20 0.13061388605775E-04
    21 0.21342988219564E-07
    22 0.40787754715022E-04
    23 -.40809097703241E-04
    24 0.79231267018645E-03
    25 0.27334376197626E-03
    26 0.31696307682810E-04
    27 0.20639036060076E-04
    28 -.17981228765889E-04
    29 -.94459166765634E-05
    30 -.77772148683836E-05
    31 0.35700081974720E-04
    32 0.11657713164091E-04
    33 -.19912957703855E-04
    34 -.11575732071019E-04
    35 0.10153139150656E-05
    36 0.51581038097803E-05
    37 0.69459435073198E-05
    38 -.34169137886491E-04
    39 0.16481866403664E-03
    40 0.51030902015954E-03
    41 0.12077438581981E-02
    42 -.75217587108305E-05
    43 0.11072040292904E-05
    44 0.89372658505579E-06
    45 0.12352580749634E-02
    46 0.54600426895768E-03
    47 0.18235722658915E-03
    48 -.14108426574674E-02
    49 0.33209028845711E-02
    50 0.11990490658992E-02
    51 0.29135713995969E-04
    52 -.16619317192576E-04
    53 -.12516396803393E-04
    54 -.16127824197868E-04
    55 -.68446857322692E-05
    56 -.29406675395015E-05
    57 0.50939055400075E-04
    58 -.96704340829000E-05
    59 -.41268621317175E-04
    60 0.22220499342565E-03
    61 0.81162188675877E-04
    62 0.17807439039145E-04
    63 0.10899601997464E-04
    64 0.87375364108010E-05
    65 -.21676249239092E-05
    66 -.14939766480366E-05
    67 -.10567403097992E-04
    68 -.37031191967141E-05
    69 -.13129373948376E-04
    70 -.11552321242660E-05
    71 0.66112932044644E-05
    72 0.53311880429853E-05
    73 0.37579590653899E-05
    74 -.18252334187434E-04
    75 -.18311677883474E-03
    76 0.38590228573281E-02
    77 -.57568517754235E-02
    78 0.24314616740038E-05
    79 -.36671255902313E-04
    80 -.10738436541864E-04
    81 0.12977488105880E-02
    82 0.19846519046423E-02
    83 0.66678538908003E-03
    84 -.42811952838543E-02
    85 0.11079709804735E-02
    86 0.35443826130814E-03
    87 0.16750941246157E-04
    88 0.35541998392004E-05
    89 -.20305141085358E-04
    90 -.15846616281256E-06
    91 -.19205718394216E-05
    92 0.10696063831153E-04
    93 -.49292490787797E-03
    94 0.55318174603553E-03
    95 -.60256838157566E-04
    96 0.49213725225989E-03
    97 0.17256403594680E-03
    98 0.27386203355257E-03
    99 -.26730282321329E-05
   100 0.46968564098535E-05
   101 -.66979240211369E-05
   102 0.12058507901660E-04
   103 -.27053481271286E-06
   104 0.43910830736965E-06
   105 -.84722642019652E-05
   106 -.60309593150799E-05
   107 0.85470997442649E-05
   108 0.87385592431317E-05
   109 0.61070807863283E-05
   110 -.30119865922366E-04
   111 -.16612261708171E-03
   112 0.41123672613944E-02
   113 0.39876246822629E-02
   114 -.10192978436570E-03
   115 -.51386482374096E-04
   116 -.16820596260434E-04
   117 0.70454937523515E-02
   118 0.19061626476145E-02
   119 0.61885826589993E-03
   120 0.15775337882148E-02
   121 -.14308081036512E-02
   122 -.48762568759661E-03
   123 0.55120228130792E-04
   124 -.23715802404855E-04
   125 -.31404425725938E-04
   126 0.87678729010033E-05
   127 0.17374089620364E-05
   128 0.40092953276383E-05
   129 0.12627593039102E-02
   130 -.99624558549724E-03
   131 -.26651371841292E-03
   132 -.47750049390615E-03
   133 -.16761005085130E-03
   134 -.32688373719928E-03
   135 0.30633784230012E-04
   136 -.89968353200865E-05
   137 -.52016213007992E-05
   138 -.60986412137775E-05
   139 0.18699914831545E-04
   140 0.59350717827833E-05
   141 -.35000893154044E-04
   142 -.66293936166944E-05
   143 0.10436355102954E-05
   144 0.12803718229836E-04
   145 0.12552209859854E-04
   146 -.61147884138098E-04
   147 0.42185933941636E-03
   148 0.65630827276056E-03
   149 -.33037991313249E-02
   150 -.16222182357293E-03
   151 0.60399726335603E-04
   152 0.23024957059018E-04
   153 0.92342122830016E-02
   154 -.42668830622054E-02
   155 -.15173872892723E-02
   156 0.16376369814827E-02
   157 0.94400808287150E-03
   158 0.32214565291751E-03
   159 0.20365410222303E-04
   160 -.41497837368672E-05
   161 -.16215626485436E-04
   162 -.22816792646875E-04
   163 -.71432608662769E-05
   164 0.55610199192192E-05
   165 -.13790095470741E-02
   166 0.12393139772085E-02
   167 0.13969556986553E-03
   168 -.12517871640458E-02
   169 -.42485577570650E-03
   170 0.50253163748586E-03
   171 0.46464806382614E-04