[Molden Format]
[Title]
                                                                                
[Atoms] AU
 c     1    6 -.89912084141014E+00 -.37613464437324E+00 -.24245732773920E+00
 c     2    6 0.15915636024803E+01 -.16439588431206E+01 0.50268547378381E+00
 c     3    6 0.35795254825476E+01 -.16631815427690E+01 -.15893221394444E+01
 c     4    6 0.47083533580496E+01 0.89582752346991E+00 -.21573929577828E+01
 o     5    8 0.43977903750669E+01 0.28042032012399E+01 -.95891283778772E+00
 o     6    8 0.62135285346202E+01 0.81346878486399E+00 -.42287020342618E+01
 c     7    6 -.28818734675249E+01 -.47481241630566E+00 0.18589221285849E+01
 c     8    6 -.53815408181031E+01 0.79045896655407E+00 0.11789254600558E+01
 o     9    8 -.51991592606580E+01 0.34623406452595E+01 0.89545864586998E+00
 h    10    1 -.50743038003005E+00 0.15900255393270E+01 -.74714536252079E+00
 h    11    1 -.16563194053943E+01 -.12994261151216E+01 -.19379001946986E+01
 h    12    1 0.12193417437117E+01 -.36021962095108E+01 0.10535468418551E+01
 h    13    1 0.23709333118377E+01 -.69793811479031E+00 0.21645984743481E+01
 h    14    1 0.28246426281762E+01 -.24354447349855E+01 -.33517385312348E+01
 h    15    1 0.51631480637837E+01 -.28948743791163E+01 -.10822623326520E+01
 h    16    1 0.69093529049171E+01 0.24954608353924E+01 -.44522624614276E+01
 h    17    1 -.32739301351322E+01 -.24521505012055E+01 0.23396773346316E+01
 h    18    1 -.21367704419529E+01 0.42239147251735E+00 0.35668895846918E+01
 h    19    1 -.61720496444141E+01 -.70677013867500E-01 -.53742529419668E+00
 h    20    1 -.67472142072990E+01 0.50119279396830E+00 0.26965273677474E+01
 h    21    1 -.41227695135463E+01 0.38354247525725E+01 -.52336425444867E+00
[GTO]
    1 0
 s    6 1.00
 0.13575349682000E+05 0.60645503603591E-03
 0.20352333680000E+04 0.46979088884982E-02
 0.46322562359000E+03 0.24332477647552E-01
 0.13120019598000E+03 0.97399968307759E-01
 0.42853015891000E+02 0.30195584253780E+00
 0.15584185766000E+02 0.66233609137875E+00
 s    2 1.00
 0.62067138508000E+01 0.65595308539952E+00
 0.25764896527000E+01 0.37585633285142E+00
 s    1 1.00
 0.57696339419000E+00 0.10000000000000E+01
 s    1 1.00
 0.22972831358000E+00 0.10000000000000E+01
 s    1 1.00
 0.95164440028000E-01 0.10000000000000E+01
 p    4 1.00
 0.34697232244000E+02 0.11327220003114E-01
 0.79582622826000E+01 0.76169659202087E-01
 0.23780826883000E+01 0.30192252202676E+00
 0.81433208183000E+00 0.72785027349547E+00
 p    1 1.00
 0.28887547253000E+00 0.10000000000000E+01
 p    1 1.00
 0.10056823671000E+00 0.10000000000000E+01
 d    1 1.00
 0.10970000000000E+01 0.10000000000000E+01
 d    1 1.00
 0.31800000000000E+00 0.10000000000000E+01
 f    1 1.00
 0.76100000000000E+00 0.10000000000000E+01
 
    2 0
 s    6 1.00
 0.13575349682000E+05 0.60645503603591E-03
 0.20352333680000E+04 0.46979088884982E-02
 0.46322562359000E+03 0.24332477647552E-01
 0.13120019598000E+03 0.97399968307759E-01
 0.42853015891000E+02 0.30195584253780E+00
 0.15584185766000E+02 0.66233609137875E+00
 s    2 1.00
 0.62067138508000E+01 0.65595308539952E+00
 0.25764896527000E+01 0.37585633285142E+00
 s    1 1.00
 0.57696339419000E+00 0.10000000000000E+01
 s    1 1.00
 0.22972831358000E+00 0.10000000000000E+01
 s    1 1.00
 0.95164440028000E-01 0.10000000000000E+01
 p    4 1.00
 0.34697232244000E+02 0.11327220003114E-01
 0.79582622826000E+01 0.76169659202087E-01
 0.23780826883000E+01 0.30192252202676E+00
 0.81433208183000E+00 0.72785027349547E+00
 p    1 1.00
 0.28887547253000E+00 0.10000000000000E+01
 p    1 1.00
 0.10056823671000E+00 0.10000000000000E+01
 d    1 1.00
 0.10970000000000E+01 0.10000000000000E+01
 d    1 1.00
 0.31800000000000E+00 0.10000000000000E+01
 f    1 1.00
 0.76100000000000E+00 0.10000000000000E+01
 
    3 0
 s    6 1.00
 0.13575349682000E+05 0.60645503603591E-03
 0.20352333680000E+04 0.46979088884982E-02
 0.46322562359000E+03 0.24332477647552E-01
 0.13120019598000E+03 0.97399968307759E-01
 0.42853015891000E+02 0.30195584253780E+00
 0.15584185766000E+02 0.66233609137875E+00
 s    2 1.00
 0.62067138508000E+01 0.65595308539952E+00
 0.25764896527000E+01 0.37585633285142E+00
 s    1 1.00
 0.57696339419000E+00 0.10000000000000E+01
 s    1 1.00
 0.22972831358000E+00 0.10000000000000E+01
 s    1 1.00
 0.95164440028000E-01 0.10000000000000E+01
 p    4 1.00
 0.34697232244000E+02 0.11327220003114E-01
 0.79582622826000E+01 0.76169659202087E-01
 0.23780826883000E+01 0.30192252202676E+00
 0.81433208183000E+00 0.72785027349547E+00
 p    1 1.00
 0.28887547253000E+00 0.10000000000000E+01
 p    1 1.00
 0.10056823671000E+00 0.10000000000000E+01
 d    1 1.00
 0.10970000000000E+01 0.10000000000000E+01
 d    1 1.00
 0.31800000000000E+00 0.10000000000000E+01
 f    1 1.00
 0.76100000000000E+00 0.10000000000000E+01
 
    4 0
 s    6 1.00
 0.13575349682000E+05 0.60645503603591E-03
 0.20352333680000E+04 0.46979088884982E-02
 0.46322562359000E+03 0.24332477647552E-01
 0.13120019598000E+03 0.97399968307759E-01
 0.42853015891000E+02 0.30195584253780E+00
 0.15584185766000E+02 0.66233609137875E+00
 s    2 1.00
 0.62067138508000E+01 0.65595308539952E+00
 0.25764896527000E+01 0.37585633285142E+00
 s    1 1.00
 0.57696339419000E+00 0.10000000000000E+01
 s    1 1.00
 0.22972831358000E+00 0.10000000000000E+01
 s    1 1.00
 0.95164440028000E-01 0.10000000000000E+01
 p    4 1.00
 0.34697232244000E+02 0.11327220003114E-01
 0.79582622826000E+01 0.76169659202087E-01
 0.23780826883000E+01 0.30192252202676E+00
 0.81433208183000E+00 0.72785027349547E+00
 p    1 1.00
 0.28887547253000E+00 0.10000000000000E+01
 p    1 1.00
 0.10056823671000E+00 0.10000000000000E+01
 d    1 1.00
 0.10970000000000E+01 0.10000000000000E+01
 d    1 1.00
 0.31800000000000E+00 0.10000000000000E+01
 f    1 1.00
 0.76100000000000E+00 0.10000000000000E+01
 
    5 0
 s    6 1.00
 0.27032382631000E+05 0.57227335211155E-03
 0.40523871392000E+04 0.44353233492995E-02
 0.92232722710000E+03 0.23020107706038E-01
 0.26124070989000E+03 0.92822490667928E-01
 0.85354641351000E+02 0.29378500009671E+00
 0.31035035245000E+02 0.67401604501641E+00
 s    2 1.00
 0.12260860728000E+02 0.63839937025506E+00
 0.49987076005000E+01 0.39534587125718E+00
 s    1 1.00
 0.11703108158000E+01 0.10000000000000E+01
 s    1 1.00
 0.46474740994000E+00 0.10000000000000E+01
 s    1 1.00
 0.18504536357000E+00 0.10000000000000E+01
 p    4 1.00
 0.63274954801000E+02 0.12018332222616E-01
 0.14627049379000E+02 0.83005421790056E-01
 0.44501223456000E+01 0.31991743925964E+00
 0.15275799647000E+01 0.70715542916104E+00
 p    1 1.00
 0.52935117943000E+00 0.10000000000000E+01
 p    1 1.00
 0.17478421270000E+00 0.10000000000000E+01
 d    1 1.00
 0.23140000000000E+01 0.10000000000000E+01
 d    1 1.00
 0.64500000000000E+00 0.10000000000000E+01
 f    1 1.00
 0.14280000000000E+01 0.10000000000000E+01
 
    6 0
 s    6 1.00
 0.27032382631000E+05 0.57227335211155E-03
 0.40523871392000E+04 0.44353233492995E-02
 0.92232722710000E+03 0.23020107706038E-01
 0.26124070989000E+03 0.92822490667928E-01
 0.85354641351000E+02 0.29378500009671E+00
 0.31035035245000E+02 0.67401604501641E+00
 s    2 1.00
 0.12260860728000E+02 0.63839937025506E+00
 0.49987076005000E+01 0.39534587125718E+00
 s    1 1.00
 0.11703108158000E+01 0.10000000000000E+01
 s    1 1.00
 0.46474740994000E+00 0.10000000000000E+01
 s    1 1.00
 0.18504536357000E+00 0.10000000000000E+01
 p    4 1.00
 0.63274954801000E+02 0.12018332222616E-01
 0.14627049379000E+02 0.83005421790056E-01
 0.44501223456000E+01 0.31991743925964E+00
 0.15275799647000E+01 0.70715542916104E+00
 p    1 1.00
 0.52935117943000E+00 0.10000000000000E+01
 p    1 1.00
 0.17478421270000E+00 0.10000000000000E+01
 d    1 1.00
 0.23140000000000E+01 0.10000000000000E+01
 d    1 1.00
 0.64500000000000E+00 0.10000000000000E+01
 f    1 1.00
 0.14280000000000E+01 0.10000000000000E+01
 
    7 0
 s    6 1.00
 0.13575349682000E+05 0.60645503603591E-03
 0.20352333680000E+04 0.46979088884982E-02
 0.46322562359000E+03 0.24332477647552E-01
 0.13120019598000E+03 0.97399968307759E-01
 0.42853015891000E+02 0.30195584253780E+00
 0.15584185766000E+02 0.66233609137875E+00
 s    2 1.00
 0.62067138508000E+01 0.65595308539952E+00
 0.25764896527000E+01 0.37585633285142E+00
 s    1 1.00
 0.57696339419000E+00 0.10000000000000E+01
 s    1 1.00
 0.22972831358000E+00 0.10000000000000E+01
 s    1 1.00
 0.95164440028000E-01 0.10000000000000E+01
 p    4 1.00
 0.34697232244000E+02 0.11327220003114E-01
 0.79582622826000E+01 0.76169659202087E-01
 0.23780826883000E+01 0.30192252202676E+00
 0.81433208183000E+00 0.72785027349547E+00
 p    1 1.00
 0.28887547253000E+00 0.10000000000000E+01
 p    1 1.00
 0.10056823671000E+00 0.10000000000000E+01
 d    1 1.00
 0.10970000000000E+01 0.10000000000000E+01
 d    1 1.00
 0.31800000000000E+00 0.10000000000000E+01
 f    1 1.00
 0.76100000000000E+00 0.10000000000000E+01
 
    8 0
 s    6 1.00
 0.13575349682000E+05 0.60645503603591E-03
 0.20352333680000E+04 0.46979088884982E-02
 0.46322562359000E+03 0.24332477647552E-01
 0.13120019598000E+03 0.97399968307759E-01
 0.42853015891000E+02 0.30195584253780E+00
 0.15584185766000E+02 0.66233609137875E+00
 s    2 1.00
 0.62067138508000E+01 0.65595308539952E+00
 0.25764896527000E+01 0.37585633285142E+00
 s    1 1.00
 0.57696339419000E+00 0.10000000000000E+01
 s    1 1.00
 0.22972831358000E+00 0.10000000000000E+01
 s    1 1.00
 0.95164440028000E-01 0.10000000000000E+01
 p    4 1.00
 0.34697232244000E+02 0.11327220003114E-01
 0.79582622826000E+01 0.76169659202087E-01
 0.23780826883000E+01 0.30192252202676E+00
 0.81433208183000E+00 0.72785027349547E+00
 p    1 1.00
 0.28887547253000E+00 0.10000000000000E+01
 p    1 1.00
 0.10056823671000E+00 0.10000000000000E+01
 d    1 1.00
 0.10970000000000E+01 0.10000000000000E+01
 d    1 1.00
 0.31800000000000E+00 0.10000000000000E+01
 f    1 1.00
 0.76100000000000E+00 0.10000000000000E+01
 
    9 0
 s    6 1.00
 0.27032382631000E+05 0.57227335211155E-03
 0.40523871392000E+04 0.44353233492995E-02
 0.92232722710000E+03 0.23020107706038E-01
 0.26124070989000E+03 0.92822490667928E-01
 0.85354641351000E+02 0.29378500009671E+00
 0.31035035245000E+02 0.67401604501641E+00
 s    2 1.00
 0.12260860728000E+02 0.63839937025506E+00
 0.49987076005000E+01 0.39534587125718E+00
 s    1 1.00
 0.11703108158000E+01 0.10000000000000E+01
 s    1 1.00
 0.46474740994000E+00 0.10000000000000E+01
 s    1 1.00
 0.18504536357000E+00 0.10000000000000E+01
 p    4 1.00
 0.63274954801000E+02 0.12018332222616E-01
 0.14627049379000E+02 0.83005421790056E-01
 0.44501223456000E+01 0.31991743925964E+00
 0.15275799647000E+01 0.70715542916104E+00
 p    1 1.00
 0.52935117943000E+00 0.10000000000000E+01
 p    1 1.00
 0.17478421270000E+00 0.10000000000000E+01
 d    1 1.00
 0.23140000000000E+01 0.10000000000000E+01
 d    1 1.00
 0.64500000000000E+00 0.10000000000000E+01
 f    1 1.00
 0.14280000000000E+01 0.10000000000000E+01
 
   10 0
 s    3 1.00
 0.34061341000000E+02 0.25439307208879E-01
 0.51235746000000E+01 0.19008594890375E+00
 0.11646626000000E+01 0.85244113011042E+00
 s    1 1.00
 0.32723041000000E+00 0.10000000000000E+01
 s    1 1.00
 0.10307241000000E+00 0.10000000000000E+01
 p    1 1.00
 0.80000000000000E+00 0.10000000000000E+01
 
   11 0
 s    3 1.00
 0.34061341000000E+02 0.25439307208879E-01
 0.51235746000000E+01 0.19008594890375E+00
 0.11646626000000E+01 0.85244113011042E+00
 s    1 1.00
 0.32723041000000E+00 0.10000000000000E+01
 s    1 1.00
 0.10307241000000E+00 0.10000000000000E+01
 p    1 1.00
 0.80000000000000E+00 0.10000000000000E+01
 
   12 0
 s    3 1.00
 0.34061341000000E+02 0.25439307208879E-01
 0.51235746000000E+01 0.19008594890375E+00
 0.11646626000000E+01 0.85244113011042E+00
 s    1 1.00
 0.32723041000000E+00 0.10000000000000E+01
 s    1 1.00
 0.10307241000000E+00 0.10000000000000E+01
 p    1 1.00
 0.80000000000000E+00 0.10000000000000E+01
 
   13 0
 s    3 1.00
 0.34061341000000E+02 0.25439307208879E-01
 0.51235746000000E+01 0.19008594890375E+00
 0.11646626000000E+01 0.85244113011042E+00
 s    1 1.00
 0.32723041000000E+00 0.10000000000000E+01
 s    1 1.00
 0.10307241000000E+00 0.10000000000000E+01
 p    1 1.00
 0.80000000000000E+00 0.10000000000000E+01
 
   14 0
 s    3 1.00
 0.34061341000000E+02 0.25439307208879E-01
 0.51235746000000E+01 0.19008594890375E+00
 0.11646626000000E+01 0.85244113011042E+00
 s    1 1.00
 0.32723041000000E+00 0.10000000000000E+01
 s    1 1.00
 0.10307241000000E+00 0.10000000000000E+01
 p    1 1.00
 0.80000000000000E+00 0.10000000000000E+01
 
   15 0
 s    3 1.00
 0.34061341000000E+02 0.25439307208879E-01
 0.51235746000000E+01 0.19008594890375E+00
 0.11646626000000E+01 0.85244113011042E+00
 s    1 1.00
 0.32723041000000E+00 0.10000000000000E+01
 s    1 1.00
 0.10307241000000E+00 0.10000000000000E+01
 p    1 1.00
 0.80000000000000E+00 0.10000000000000E+01
 
   16 0
 s    3 1.00
 0.34061341000000E+02 0.25439307208879E-01
 0.51235746000000E+01 0.19008594890375E+00
 0.11646626000000E+01 0.85244113011042E+00
 s    1 1.00
 0.32723041000000E+00 0.10000000000000E+01
 s    1 1.00
 0.10307241000000E+00 0.10000000000000E+01
 p    1 1.00
 0.80000000000000E+00 0.10000000000000E+01
 
   17 0
 s    3 1.00
 0.34061341000000E+02 0.25439307208879E-01
 0.51235746000000E+01 0.19008594890375E+00
 0.11646626000000E+01 0.85244113011042E+00
 s    1 1.00
 0.32723041000000E+00 0.10000000000000E+01
 s    1 1.00
 0.10307241000000E+00 0.10000000000000E+01
 p    1 1.00
 0.80000000000000E+00 0.10000000000000E+01
 
   18 0
 s    3 1.00
 0.34061341000000E+02 0.25439307208879E-01
 0.51235746000000E+01 0.19008594890375E+00
 0.11646626000000E+01 0.85244113011042E+00
 s    1 1.00
 0.32723041000000E+00 0.10000000000000E+01
 s    1 1.00
 0.10307241000000E+00 0.10000000000000E+01
 p    1 1.00
 0.80000000000000E+00 0.10000000000000E+01
 
   19 0
 s    3 1.00
 0.34061341000000E+02 0.25439307208879E-01
 0.51235746000000E+01 0.19008594890375E+00
 0.11646626000000E+01 0.85244113011042E+00
 s    1 1.00
 0.32723041000000E+00 0.10000000000000E+01
 s    1 1.00
 0.10307241000000E+00 0.10000000000000E+01
 p    1 1.00
 0.80000000000000E+00 0.10000000000000E+01
 
   20 0
 s    3 1.00
 0.34061341000000E+02 0.25439307208879E-01
 0.51235746000000E+01 0.19008594890375E+00
 0.11646626000000E+01 0.85244113011042E+00
 s    1 1.00
 0.32723041000000E+00 0.10000000000000E+01
 s    1 1.00
 0.10307241000000E+00 0.10000000000000E+01
 p    1 1.00
 0.80000000000000E+00 0.10000000000000E+01
 
   21 0
 s    3 1.00
 0.34061341000000E+02 0.25439307208879E-01
 0.51235746000000E+01 0.19008594890375E+00
 0.11646626000000E+01 0.85244113011042E+00
 s    1 1.00
 0.32723041000000E+00 0.10000000000000E+01
 s    1 1.00
 0.10307241000000E+00 0.10000000000000E+01
 p    1 1.00
 0.80000000000000E+00 0.10000000000000E+01
 
[MO]
 Sym=     1a   
 Ene= -.19178570312104E+02
 Spin= Alpha
 Occup= 2.000000
     1 0.29999996386552E-05
     2 -.15315771185423E-04
     3 0.38008106084928E-03
     4 -.20851414005823E-02
     5 0.68771982488724E-02
     6 -.11249347422435E-04
     7 -.82710035867587E-05
     8 0.25945160043460E-04
     9 -.13845745909070E-03
    10 0.55747696163237E-03
    11 -.67318594185932E-03
    12 0.18738536498364E-02
    13 0.19416158210972E-02
    14 0.13301889176004E-02
    15 -.15178010326159E-04
    16 0.39225819209235E-05
    17 0.11255428405235E-04
    18 0.81858758243442E-05
    19 -.20584321061471E-04
    20 -.11046054164765E-04
    21 -.13616542636597E-03
    22 0.19891683441008E-03
    23 -.62751408044107E-04
    24 0.13062223815125E-03
    25 0.85541092982989E-04
    26 0.59082221382112E-04
    27 -.93666958025978E-05
    28 -.39408085860295E-05
    29 0.47374281175645E-05
    30 0.37944712524666E-05
    31 0.93063534574017E-05
    32 -.12075667010062E-04
    33 0.87722698710357E-05
    34 -.40192039265957E-05
    35 0.57197402244259E-05
    36 0.14431708703400E-05
    37 0.10823462847357E-05
    38 -.46796111241449E-05
    39 -.24858653014205E-03
    40 0.29094649142251E-02
    41 -.53719308464286E-02
    42 0.72053209917891E-04
    43 0.33549536457788E-04
    44 -.10680049113689E-04
    45 -.59781029595116E-04
    46 -.84351694906014E-04
    47 -.11346756986783E-02
    48 -.72273053762255E-03
    49 -.47126341813989E-02
    50 0.76971924493525E-03
    51 0.24443133062871E-05
    52 0.65659296899487E-05
    53 -.90102429962358E-05
    54 0.47858631493249E-04
    55 -.29433777100652E-04
    56 -.44145227369515E-04
    57 0.23257994675860E-03
    58 -.11986110777970E-03
    59 -.11271883897890E-03
    60 -.39513450803593E-03
    61 -.94271237700547E-04
    62 0.25023095307507E-05
    63 0.89738371442475E-05
    64 -.21870078527483E-06
    65 0.37303445256587E-05
    66 -.69540130438433E-05
    67 0.14593993767169E-04
    68 -.71797484050894E-05
    69 -.50856528802867E-05
    70 -.14300575873604E-04
    71 0.21749660417692E-05
    72 0.32228456538554E-06
    73 0.11801808599298E-04
    74 -.56907740182199E-04
    75 0.89758032771042E-04
    76 0.28237089432021E-02
    77 -.20146189235478E-03
    78 -.30322899781313E-05
    79 0.52092255214647E-04
    80 -.23847771188767E-04
    81 0.13562412325025E-02
    82 0.17832081519487E-02
    83 -.83923682684217E-03
    84 0.73821685674892E-03
    85 0.14346455866666E-02
    86 -.12640169440869E-02
    87 -.17362486766832E-04
    88 0.10869617890518E-04
    89 0.64928688763131E-05
    90 0.31592299658805E-04
    91 -.57908425225662E-04
    92 -.16665034962181E-04
    93 -.90693461395368E-04
    94 0.53071537287254E-03
    95 -.44002191147717E-03
    96 0.12433755930672E-03
    97 0.54482455633515E-03
    98 -.26190358031824E-04
    99 -.30854538846625E-05
   100 0.38441701652973E-04
   101 -.26518505672771E-05
   102 0.21990843532586E-04
   103 -.20392572261663E-04
   104 0.12680880433575E-04
   105 -.17851272756058E-04
   106 -.31182382578426E-04
   107 -.91230495528132E-05
   108 0.14175988471313E-04
   109 0.42737658375253E-04
   110 -.22973837801981E-03
   111 -.33227323316190E-03
   112 0.21137674934273E-02
   113 -.32537912693507E-02
   114 -.33341037260384E-04
   115 -.57918218222802E-04
   116 -.60874941114923E-05
   117 0.46603531264740E-02
   118 0.89576466502217E-03
   119 -.58623338640478E-02
   120 -.39440624707611E-02
   121 0.22131613767348E-02
   122 0.60270005519650E-02
   123 0.19573252783792E-05
   124 -.13067931644937E-03
   125 0.12872199117099E-03
   126 0.15355482002693E-04
   127 -.25069063003513E-03
   128 -.12269159623332E-04
   129 0.31264669083504E-03
   130 -.17503356374150E-02
   131 0.14376889465799E-02
   132 -.47417699286835E-03
   133 -.17415333445507E-02
   134 0.22881671857715E-03
   135 -.11387683769722E-03
   136 -.23178757871681E-04
   137 0.44939588960003E-04
   138 -.20637176107813E-04
   139 0.47654206136683E-04
   140 -.66117642624456E-04
   141 0.17341898620003E-03
   142 -.16556639195630E-04
   143 0.58248571471755E-05
   144 -.23588863521133E-04
   145 -.45257134977050E-04
   146 -.45152844239428E-04
   147 -.32227367685636E-03
   148 0.21796172697709E-02
   149 -.32517983625773E-02
   150 -.82759454446370E-05
   151 -.78498217253465E-04
   152 -.34133344360329E-04
   153 0.29436483472489E-03
   154 -.31342768377804E-04
   155 -.38814438858998E-03
   156 0.38745216391301E-03
   157 0.44507174348086E-03
   158 -.49404697899165E-03
   159 -.17363638531690E-04
   160 0.18062074351917E-04
   161 -.69843582022746E-06
   162 0.11919735128732E-04
   163 -.37969730027027E-04
   164 0.89257049371118E-05
   165 0.44731314995369E-04
   166 -.85227398671161E-04
   167 0.40496083675792E-04
   168 -.82749472900304E-04
   169 0.10684981115368E-03
   170 0.33189103770914E-04
   171 0.95954267216112E-05
   172 0.14990883782371E-05
   173 -.11577797689335E-05
   174 0.64964959079887E-05
   175 -.40954890785211E-05
   176 0.48031647466944E-05
   177 -.19370111761573E-04
   178 0.20842509677103E-05
   179 -.32498401869088E-05
   180 -.63494129632612E-05
   181 0.43508763135723E+00
   182 0.63949884104107E+00
   183 0.36629263814040E-01
   184 -.29859191234525E-01
   185 0.13190212345431E-01
   186 -.57194506684500E-03
   187 0.12526758631482E-02
   188 0.13237684764725E-02
   189 0.25489524078782E-02
   190 -.18799508226143E-02
   191 -.43048039995338E-02
   192 -.65029104719862E-03
   193 0.58705072696397E-04
   194 0.10264846731736E-02
   195 -.20000892558849E-04
   196 -.40665912665928E-05
   197 0.24067483825442E-04
   198 0.47441779839797E-04
   199 -.11799838505542E-03
   200 -.10018442777161E-04
   201 0.10324752517147E-03
   202 0.12220956105458E-03
   203 -.22545708622605E-03
   204 -.22257991007821E-03
   205 0.75553553381179E-03
   206 0.32460046903199E-04
   207 0.17219666440359E-05
   208 -.23043384237954E-04
   209 -.18007833036817E-04
   210 -.65336046659375E-04
   211 0.75173300747916E-05
   212 -.20658236814627E-04
   213 0.63025785976744E-04
   214 0.23398614077836E-04
   215 0.44818280093300E-04
   216 0.17264849989331E-04
   217 0.75826184657246E-06
   218 -.32906080465803E-05
   219 -.96526278539729E-04
   220 0.67843312634418E-03
   221 -.18645656292520E-02
   222 -.79867007162556E-05
   223 0.66144993194678E-05
   224 0.61781495643510E-05
   225 0.42511922005399E-03
   226 -.61066476432639E-04
   227 -.38160747175153E-03
   228 -.10702988446513E-02
   229 -.82648106458494E-03
   230 -.18820051838049E-03
   231 0.31603720796931E-05
   232 0.58438284623171E-05
   233 -.90042005420103E-05
   234 0.73056809182988E-05
   235 -.10975498418621E-04
   236 -.50456856432895E-05
   237 0.38649589321730E-04
   238 -.12542902887159E-03
   239 0.86779439549860E-04
   240 -.22866479485760E-04
   241 -.11081480664798E-03
   242 0.21342437302714E-04
   243 -.98160500532485E-06
   244 0.28344512272826E-05
   245 0.26098189753132E-05
   246 -.47405576209461E-05
   247 -.37002373712266E-05
   248 -.74801915970331E-05
   249 0.60575189323223E-05
   250 -.10257800264043E-06
   251 0.39787520143717E-05
   252 0.60132196425104E-06
   253 -.82805392459273E-06
   254 0.40703216138643E-05
   255 -.34037279233093E-04
   256 0.12860731617759E-03
   257 -.44074562153371E-03
   258 -.10939458087458E-04
   259 -.15754957112711E-05
   260 -.37527480794446E-05
   261 0.10174110355822E-03
   262 -.32488857267130E-04
   263 -.23159419318317E-04
   264 0.56292777507202E-04
   265 0.16002203452301E-03
   266 -.78177935262697E-04
   267 -.34099068138866E-05
   268 0.32318369465164E-05
   269 0.17806986737017E-06
   270 -.17789888720336E-05
   271 -.35478623013168E-05
   272 -.45048151810559E-05
   273 0.27925274795647E-04
   274 -.25346742215483E-04
   275 -.25785325801634E-05
   276 0.92363715077658E-05
   277 0.57070191215139E-04
   278 0.30190483552124E-04
   279 0.15959720454717E-05
   280 -.11696293698745E-05
   281 -.30113829991781E-05
   282 -.16048004048380E-05
   283 0.15300800154666E-05
   284 0.12370301288605E-05
   285 -.53642078548039E-06
   286 0.39142452245235E-07
   287 0.28031641266092E-05
   288 -.24567925824046E-05
   289 -.45954052834722E-06
   290 -.20144700486319E-06
   291 -.25882396766411E-05
   292 0.16927086942300E-04
   293 -.57251451338521E-04
   294 0.60284012514379E-05
   295 -.13490925774667E-05
   296 0.61517802272897E-05
   297 -.33809702553401E-04
   298 -.81885262142133E-05
   299 -.19713308628155E-04
   300 -.25864534980247E-05
   301 -.85300933468289E-04
   302 0.13332864566333E-03
   303 0.13083223299521E-06
   304 -.13178672370037E-05
   305 0.11870350040085E-05
   306 -.64985978270902E-07
   307 -.25579150400674E-05
   308 -.20626404054459E-07
   309 -.23683020741828E-05
   310 0.10284306351147E-04
   311 -.79160042769645E-05
   312 0.72045176647480E-06
   313 0.12176729091942E-04
   314 0.43257047771983E-05
   315 0.37391924852740E-06
   316 -.32433035972047E-07
   317 0.90514096329560E-07
   318 -.15222626815169E-06
   319 0.16919186484655E-06
   320 0.92003569761206E-06
   321 -.34943904653005E-06
   322 -.12567838095644E-06
   323 -.10414731010010E-05
   324 0.62492016278169E-06
   325 0.58640102423498E-04
   326 -.69121272260206E-03
   327 -.24070086641662E-02
   328 -.23700050576347E-04
   329 0.64826044924095E-04
   330 -.51763606085785E-04
   331 -.20327262510895E-04
   332 0.12097337738624E-03
   333 0.44574602150220E-03
   334 0.23835839520569E-04
   335 -.47987838178245E-05
   336 0.19185381826786E-04
   337 0.52946708903662E-04
   338 -.27887880134727E-03
   339 -.16904567347770E-02
   340 -.58113093540945E-04
   341 -.21226914930539E-04
   342 0.40523742309827E-04
   343 -.56269526370463E-04
   344 0.12622617150571E-02
   345 0.85497570510975E-03
   346 -.34387896879665E-04
   347 -.32514887335029E-05
   348 -.16885489554845E-03
   349 -.24132975954244E-04
   350 -.14709206506471E-03
   351 0.64727452262838E-03
   352 0.73970107253827E-04
   353 -.19928054413488E-04
   354 -.96958588463024E-04
   355 -.80041644436503E-04
   356 -.29209103632344E-03
   357 0.12576926316930E-02
   358 0.70205560774418E-04
   359 -.52254007634055E-04
   360 -.29526150313044E-04
   361 0.83743777849243E-03
   362 0.11183529778437E-02
   363 -.47657541875909E-03
   364 -.35317102644185E-03
   365 -.87672149748696E-03
   366 0.10178844384841E-03
   367 0.25590399131235E-04
   368 0.38163402978706E-04
   369 -.31683519355999E-03
   370 -.69406799593303E-05
   371 0.74474375084207E-05
   372 0.11356656607503E-04
   373 -.21878878310173E-04
   374 0.12624936171633E-03
   375 0.76553848093230E-03
   376 -.58340165147115E-05
   377 0.14218384315041E-04
   378 -.15900985751687E-04
   379 -.11546863120115E-04
   380 -.70657962786696E-04
   381 0.10837762424752E-03
   382 0.43896675818921E-05
   383 -.77974995422203E-05
   384 -.15446180027215E-04
   385 0.55275339506091E-05
   386 0.10345900885905E-03
   387 0.83338053451792E-04
   388 0.10624890917646E-04
   389 -.19839404362058E-05
   390 -.11758150413798E-04
   391 0.20982476326592E-05
   392 0.65294941218079E-04
   393 0.19329546633053E-03
   394 -.95831034128348E-05
   395 -.70687321993836E-06
   396 0.17632852000338E-04
 Sym=     2a   
 Ene= -.19121784855450E+02
 Spin= Alpha
 Occup= 2.000000
     1 0.66241384974402E-06
     2 -.26237874198530E-05
     3 -.14852008462074E-03
     4 0.53044145628447E-03
     5 0.35572852817449E-02
     6 -.38797832410924E-04
     7 -.40321065061951E-04
     8 -.42110621875792E-05
     9 0.25195632212163E-03
    10 0.38714748263575E-03
    11 -.17282422864506E-03
    12 0.17764725924950E-02
    13 -.14122715384274E-02
    14 -.32786033765917E-03
    15 -.12784202593325E-04
    16 0.53915464432863E-05
    17 0.73926561500384E-05
    18 -.11317591366005E-04
    19 -.11925414015661E-04
    20 -.70132676952226E-05
    21 0.44847485310768E-05
    22 0.10335708947594E-03
    23 -.10784183800701E-03
    24 0.14124642934043E-03
    25 0.53914177089424E-04
    26 0.11147464874733E-04
    27 0.10685626334657E-05
    28 0.91986389315692E-05
    29 0.31658117678850E-05
    30 0.57103926874348E-05
    31 0.87929890922037E-06
    32 0.68590759334738E-06
    33 -.71440198994221E-05
    34 -.13220568080099E-04
    35 -.49332897835231E-05
    36 -.43735750239061E-05
    37 -.10759692388892E-05
    38 0.74145705363527E-05
    39 -.48694872838523E-03
    40 0.37877869765344E-02
    41 -.12300924939471E-01
    42 -.37233171961409E-04
    43 0.38829339943964E-04
    44 0.12101645935709E-04
    45 0.14486417310277E-02
    46 -.55206950799220E-04
    47 -.14198268602135E-02
    48 -.11030224609128E-02
    49 -.50305649907020E-03
    50 0.18888856296690E-02
    51 0.77814550773672E-05
    52 -.39240438337878E-05
    53 -.38574112435794E-05
    54 0.17549726552616E-04
    55 -.20920432713363E-04
    56 -.24511359865771E-04
    57 0.14729547317370E-03
    58 -.26408954244884E-03
    59 0.11679406927514E-03
    60 -.86085801355859E-04
    61 -.38659630306759E-03
    62 0.13389159349946E-03
    63 -.78694188443204E-05
    64 0.73803380356143E-05
    65 0.17326969001682E-04
    66 -.39522663183209E-05
    67 -.35109788225417E-05
    68 -.22756474131814E-04
    69 0.14510199605912E-04
    70 -.63907837041948E-05
    71 -.49009418726232E-06
    72 -.60849890380450E-05
    73 0.20564902214753E-04
    74 -.10004133118650E-03
    75 0.46205732575837E-03
    76 0.62407079381002E-03
    77 0.48986838314993E-02
    78 -.34329511668346E-04
    79 0.82894976989858E-04
    80 0.57664693708244E-04
    81 0.18999034029574E-02
    82 0.19289092201915E-02
    83 -.97195958732526E-03
    84 -.14493142663728E-02
    85 -.70348871287138E-03
    86 0.36075019213254E-02
    87 -.53111239612169E-04
    88 0.69859097585331E-04
    89 -.16747857973161E-04
    90 0.53561839895620E-04
    91 -.47107480170170E-04
    92 -.60597702250663E-05
    93 -.42331685096757E-04
    94 0.66435655577807E-03
    95 -.62202487068132E-03
    96 -.97260073040329E-04
    97 0.92802466154526E-03
    98 0.56037965341206E-04
    99 0.41312266464816E-05
   100 0.32706763967105E-04
   101 -.85256778432312E-05
   102 0.33661856814074E-05
   103 -.18097173990348E-04
   104 0.10953139273875E-04
   105 -.89088078486023E-05
   106 -.25783554542345E-04
   107 0.48525785316243E-06
   108 0.19675794881711E-04
   109 0.39445664336585E-04
   110 -.24206414175189E-03
   111 0.77353887514143E-03
   112 0.44382089997003E-02
   113 -.35296179007480E-02
   114 -.89165195272651E-04
   115 0.57655939914461E-03
   116 0.46529506448886E-03
   117 -.93406093743699E-03
   118 0.81672466048210E-02
   119 0.40730951792442E-02
   120 0.18324232001094E-02
   121 -.49059325020252E-02
   122 -.45731216729383E-02
   123 -.13043211704425E-03
   124 0.17438642886151E-03
   125 -.43954311817261E-04
   126 -.19718807439362E-04
   127 -.34817353161353E-04
   128 0.15065939677285E-03
   129 -.11488686695113E-02
   130 0.12636734464404E-02
   131 -.11480477692906E-03
   132 -.10657530852169E-02
   133 0.11979038365587E-03
   134 0.25567609379966E-02
   135 0.10233203396644E-04
   136 0.28739772853545E-04
   137 0.10130434182952E-04
   138 0.60379652599503E-04
   139 -.24778676106066E-04
   140 0.16166866409293E-04
   141 -.74108935652989E-04
   142 -.13779775348992E-04
   143 -.29758270094094E-04
   144 -.35231240939677E-04
   145 0.43508225837034E+00