[Molden Format]
[Title]
                                                                                
[Atoms] AU
 c     1    6 -.24071796782401E+01 -.11183181769542E+00 0.17941373268523E+01
 c     2    6 -.60057231081698E+00 -.10155645996602E+01 0.30466496447499E+00
 c     3    6 0.12887877478383E+01 0.68469974641269E+00 -.87007203965426E+00
 o     4    8 0.14012569863361E+01 0.29473154866100E+01 -.62728012310648E+00
 o     5    8 0.29504960499154E+01 -.63169871405186E+00 -.23103171327100E+01
 h     6    1 -.25339284844303E+01 0.18942509409206E+01 0.21793734954383E+01
 h     7    1 -.37925022263249E+01 -.13434080934849E+01 0.26576778454817E+01
 h     8    1 -.43072803014850E+00 -.30111063236294E+01 -.11153940086525E+00
 h     9    1 0.41243718355971E+01 0.58734337457848E+00 -.30166449359115E+01
[GTO]
    1 0
 s    6 1.00
 0.13575349682000E+05 0.60645503603591E-03
 0.20352333680000E+04 0.46979088884982E-02
 0.46322562359000E+03 0.24332477647552E-01
 0.13120019598000E+03 0.97399968307759E-01
 0.42853015891000E+02 0.30195584253780E+00
 0.15584185766000E+02 0.66233609137875E+00
 s    2 1.00
 0.62067138508000E+01 0.65595308539952E+00
 0.25764896527000E+01 0.37585633285142E+00
 s    1 1.00
 0.57696339419000E+00 0.10000000000000E+01
 s    1 1.00
 0.22972831358000E+00 0.10000000000000E+01
 s    1 1.00
 0.95164440028000E-01 0.10000000000000E+01
 p    4 1.00
 0.34697232244000E+02 0.11327220003114E-01
 0.79582622826000E+01 0.76169659202087E-01
 0.23780826883000E+01 0.30192252202676E+00
 0.81433208183000E+00 0.72785027349547E+00
 p    1 1.00
 0.28887547253000E+00 0.10000000000000E+01
 p    1 1.00
 0.10056823671000E+00 0.10000000000000E+01
 d    1 1.00
 0.10970000000000E+01 0.10000000000000E+01
 d    1 1.00
 0.31800000000000E+00 0.10000000000000E+01
 f    1 1.00
 0.76100000000000E+00 0.10000000000000E+01
 
    2 0
 s    6 1.00
 0.13575349682000E+05 0.60645503603591E-03
 0.20352333680000E+04 0.46979088884982E-02
 0.46322562359000E+03 0.24332477647552E-01
 0.13120019598000E+03 0.97399968307759E-01
 0.42853015891000E+02 0.30195584253780E+00
 0.15584185766000E+02 0.66233609137875E+00
 s    2 1.00
 0.62067138508000E+01 0.65595308539952E+00
 0.25764896527000E+01 0.37585633285142E+00
 s    1 1.00
 0.57696339419000E+00 0.10000000000000E+01
 s    1 1.00
 0.22972831358000E+00 0.10000000000000E+01
 s    1 1.00
 0.95164440028000E-01 0.10000000000000E+01
 p    4 1.00
 0.34697232244000E+02 0.11327220003114E-01
 0.79582622826000E+01 0.76169659202087E-01
 0.23780826883000E+01 0.30192252202676E+00
 0.81433208183000E+00 0.72785027349547E+00
 p    1 1.00
 0.28887547253000E+00 0.10000000000000E+01
 p    1 1.00
 0.10056823671000E+00 0.10000000000000E+01
 d    1 1.00
 0.10970000000000E+01 0.10000000000000E+01
 d    1 1.00
 0.31800000000000E+00 0.10000000000000E+01
 f    1 1.00
 0.76100000000000E+00 0.10000000000000E+01
 
    3 0
 s    6 1.00
 0.13575349682000E+05 0.60645503603591E-03
 0.20352333680000E+04 0.46979088884982E-02
 0.46322562359000E+03 0.24332477647552E-01
 0.13120019598000E+03 0.97399968307759E-01
 0.42853015891000E+02 0.30195584253780E+00
 0.15584185766000E+02 0.66233609137875E+00
 s    2 1.00
 0.62067138508000E+01 0.65595308539952E+00
 0.25764896527000E+01 0.37585633285142E+00
 s    1 1.00
 0.57696339419000E+00 0.10000000000000E+01
 s    1 1.00
 0.22972831358000E+00 0.10000000000000E+01
 s    1 1.00
 0.95164440028000E-01 0.10000000000000E+01
 p    4 1.00
 0.34697232244000E+02 0.11327220003114E-01
 0.79582622826000E+01 0.76169659202087E-01
 0.23780826883000E+01 0.30192252202676E+00
 0.81433208183000E+00 0.72785027349547E+00
 p    1 1.00
 0.28887547253000E+00 0.10000000000000E+01
 p    1 1.00
 0.10056823671000E+00 0.10000000000000E+01
 d    1 1.00
 0.10970000000000E+01 0.10000000000000E+01
 d    1 1.00
 0.31800000000000E+00 0.10000000000000E+01
 f    1 1.00
 0.76100000000000E+00 0.10000000000000E+01
 
    4 0
 s    6 1.00
 0.27032382631000E+05 0.57227335211155E-03
 0.40523871392000E+04 0.44353233492995E-02
 0.92232722710000E+03 0.23020107706038E-01
 0.26124070989000E+03 0.92822490667928E-01
 0.85354641351000E+02 0.29378500009671E+00
 0.31035035245000E+02 0.67401604501641E+00
 s    2 1.00
 0.12260860728000E+02 0.63839937025506E+00
 0.49987076005000E+01 0.39534587125718E+00
 s    1 1.00
 0.11703108158000E+01 0.10000000000000E+01
 s    1 1.00
 0.46474740994000E+00 0.10000000000000E+01
 s    1 1.00
 0.18504536357000E+00 0.10000000000000E+01
 p    4 1.00
 0.63274954801000E+02 0.12018332222616E-01
 0.14627049379000E+02 0.83005421790056E-01
 0.44501223456000E+01 0.31991743925964E+00
 0.15275799647000E+01 0.70715542916104E+00
 p    1 1.00
 0.52935117943000E+00 0.10000000000000E+01
 p    1 1.00
 0.17478421270000E+00 0.10000000000000E+01
 d    1 1.00
 0.23140000000000E+01 0.10000000000000E+01
 d    1 1.00
 0.64500000000000E+00 0.10000000000000E+01
 f    1 1.00
 0.14280000000000E+01 0.10000000000000E+01
 
    5 0
 s    6 1.00
 0.27032382631000E+05 0.57227335211155E-03
 0.40523871392000E+04 0.44353233492995E-02
 0.92232722710000E+03 0.23020107706038E-01
 0.26124070989000E+03 0.92822490667928E-01
 0.85354641351000E+02 0.29378500009671E+00
 0.31035035245000E+02 0.67401604501641E+00
 s    2 1.00
 0.12260860728000E+02 0.63839937025506E+00
 0.49987076005000E+01 0.39534587125718E+00
 s    1 1.00
 0.11703108158000E+01 0.10000000000000E+01
 s    1 1.00
 0.46474740994000E+00 0.10000000000000E+01
 s    1 1.00
 0.18504536357000E+00 0.10000000000000E+01
 p    4 1.00
 0.63274954801000E+02 0.12018332222616E-01
 0.14627049379000E+02 0.83005421790056E-01
 0.44501223456000E+01 0.31991743925964E+00
 0.15275799647000E+01 0.70715542916104E+00
 p    1 1.00
 0.52935117943000E+00 0.10000000000000E+01
 p    1 1.00
 0.17478421270000E+00 0.10000000000000E+01
 d    1 1.00
 0.23140000000000E+01 0.10000000000000E+01
 d    1 1.00
 0.64500000000000E+00 0.10000000000000E+01
 f    1 1.00
 0.14280000000000E+01 0.10000000000000E+01
 
    6 0
 s    3 1.00
 0.34061341000000E+02 0.25439307208879E-01
 0.51235746000000E+01 0.19008594890375E+00
 0.11646626000000E+01 0.85244113011042E+00
 s    1 1.00
 0.32723041000000E+00 0.10000000000000E+01
 s    1 1.00
 0.10307241000000E+00 0.10000000000000E+01
 p    1 1.00
 0.80000000000000E+00 0.10000000000000E+01
 
    7 0
 s    3 1.00
 0.34061341000000E+02 0.25439307208879E-01
 0.51235746000000E+01 0.19008594890375E+00
 0.11646626000000E+01 0.85244113011042E+00
 s    1 1.00
 0.32723041000000E+00 0.10000000000000E+01
 s    1 1.00
 0.10307241000000E+00 0.10000000000000E+01
 p    1 1.00
 0.80000000000000E+00 0.10000000000000E+01
 
    8 0
 s    3 1.00
 0.34061341000000E+02 0.25439307208879E-01
 0.51235746000000E+01 0.19008594890375E+00
 0.11646626000000E+01 0.85244113011042E+00
 s    1 1.00
 0.32723041000000E+00 0.10000000000000E+01
 s    1 1.00
 0.10307241000000E+00 0.10000000000000E+01
 p    1 1.00
 0.80000000000000E+00 0.10000000000000E+01
 
    9 0
 s    3 1.00
 0.34061341000000E+02 0.25439307208879E-01
 0.51235746000000E+01 0.19008594890375E+00
 0.11646626000000E+01 0.85244113011042E+00
 s    1 1.00
 0.32723041000000E+00 0.10000000000000E+01
 s    1 1.00
 0.10307241000000E+00 0.10000000000000E+01
 p    1 1.00
 0.80000000000000E+00 0.10000000000000E+01
 
[MO]
 Sym=     1a   
 Ene= -.19177874018259E+02
 Spin= Alpha
 Occup= 2.000000
     1 0.71867117913268E-05
     2 -.36178941887647E-04
     3 0.49317264236554E-03
     4 0.19067733698384E-02
     5 -.82019956928105E-03
     6 0.69800492335973E-04
     7 0.15269545227833E-04
     8 -.50287148654325E-04
     9 0.14147901398730E-02
    10 -.74664396735421E-03
    11 -.11719490332094E-02
    12 -.19088328955662E-02
    13 -.19284620562196E-02
    14 0.11564646653271E-02
    15 0.24062934377899E-04
    16 -.19840616119182E-04
    17 -.42223182587161E-05
    18 0.40686627809532E-04
    19 -.35431160634721E-04
    20 -.29986690459972E-04
    21 0.36031076810279E-04
    22 -.21373660163933E-03
    23 0.17770552482905E-03
    24 -.39573790257540E-03
    25 0.94475034555592E-04
    26 0.22674594075752E-03
    27 0.20655483745718E-06
    28 -.22713422063756E-04
    29 -.48621844931647E-07
    30 0.65403123254780E-05
    31 0.19109981738195E-04
    32 0.10525005903483E-04
    33 -.68174347200594E-05
    34 0.11363271703526E-04
    35 -.10459772853208E-04
    36 -.12954404400644E-04
    37 0.20794768260511E-04
    38 -.10186948962292E-03
    39 0.62676152777632E-03
    40 0.80466537582474E-03
    41 0.36894888777202E-02
    42 -.35017192536209E-04
    43 -.18758216998579E-04
    44 0.23641977666299E-04
    45 0.31384539016671E-02
    46 0.19770128588188E-02
    47 -.20741362468674E-02
    48 0.20612914902916E-02
    49 -.15765163147085E-03
    50 -.15730777152668E-02
    51 0.23589319231960E-04
    52 -.15835710265989E-04
    53 -.77536089659702E-05
    54 -.10983765271533E-04
    55 -.69987881771326E-04
    56 0.14857781322463E-04
    57 -.11008153654523E-03
    58 0.29379982654491E-03
    59 -.18371828999967E-03
    60 0.91716620402155E-03
    61 0.32338652174512E-03
    62 -.65897890285941E-03
    63 -.97783505905833E-05
    64 -.68415484425264E-05
    65 -.18339549901401E-05
    66 0.30817668762683E-04
    67 0.12097527102716E-04
    68 0.23429606892953E-04
    69 -.17698634785662E-04
    70 -.29186266694076E-05
    71 -.20969098077576E-04
    72 -.17296178914986E-04
    73 0.40490156229777E-04
    74 -.21909625242438E-03
    75 -.38571136052099E-03
    76 0.16167956937523E-02
    77 -.44255973095872E-02
    78 -.51340703142057E-04
    79 -.53389011844535E-04
    80 0.30871681774391E-04
    81 0.62013523401304E-02
    82 -.18953958820098E-02
    83 -.49378838810578E-02
    84 -.31456863488288E-02
    85 0.51147043376491E-02
    86 0.31062699405085E-02
    87 0.53898948104719E-04
    88 -.42712514686479E-04
    89 -.11186433418241E-04
    90 -.15306342423165E-03
    91 -.21514173895729E-03
    92 0.13612203779300E-03
    93 0.51426311809017E-04
    94 -.19353168925168E-03
    95 0.14210537744267E-03
    96 -.20482779956627E-02
    97 -.90628064936142E-03
    98 0.16167675261270E-02
    99 -.46611351172346E-04
   100 -.10747635500122E-04
   101 0.11848503729934E-03
   102 -.90826314161530E-05
   103 0.37515925766247E-05
   104 -.13749350180092E-03
   105 0.71618321262842E-04
   106 0.10667873568773E-04
   107 -.21470856829837E-04
   108 0.94409659581843E-04
   109 -.41380510282990E-04
   110 -.40653894667980E-04
   111 -.27519414510203E-03
   112 0.17576285327230E-02
   113 -.33834986972501E-02
   114 -.14312488564661E-04
   115 -.10771696759146E-03
   116 -.48290229920566E-05
   117 0.29875222336892E-03
   118 0.19731923510113E-04
   119 -.22175713802659E-03
   120 0.81706752166055E-03
   121 0.19044535166557E-03
   122 -.58708733854793E-03
   123 0.15911169701826E-06
   124 0.21378431690176E-04
   125 -.21537543387195E-04
   126 0.10565507323939E-04
   127 -.40803261048217E-04
   128 0.37395527184760E-05
   129 -.22090724384611E-04
   130 -.46196763673909E-04
   131 0.68287488058520E-04
   132 -.95287259335288E-04
   133 0.13944036262933E-03
   134 0.38152856672867E-04
   135 0.44862517582188E-05
   136 -.38891613083094E-06
   137 -.75098974150666E-05
   138 -.15295755352387E-05
   139 0.23951903598559E-05
   140 0.51764458065675E-05
   141 -.44893628020944E-05
   142 -.18734046162053E-05
   143 0.48991388679158E-05
   144 -.14847613562232E-04
   145 0.43508843357595E+00
   146 0.63950563016122E+00
   147 0.36560148074564E-01
   148 -.29630263818835E-01
   149 0.12433132899466E-01
   150 -.35365005419492E-03
   151 0.18141322007815E-02
   152 0.52867889209163E-03
   153 0.24717633129230E-02
   154 -.41121885299356E-02
   155 -.24543877909106E-02
   156 -.43289176379538E-03
   157 0.78496343508792E-03
   158 0.43897792698533E-03
   159 0.32778679374150E-04
   160 -.83656804262943E-05
   161 -.24412998947855E-04
   162 -.16936828279704E-04
   163 -.12619355457303E-03
   164 0.30987811563448E-04
   165 -.18100108774248E-03
   166 0.51787756988560E-04
   167 0.12921333075392E-03
   168 0.20913458004612E-03
   169 0.75363192862585E-03
   170 -.25832289061863E-03
   171 -.19019287383185E-05
   172 0.37539601710088E-04
   173 -.85188050527760E-06
   174 -.15718341157704E-04
   175 -.45663030630889E-04
   176 -.52327961912769E-05
   177 0.18270046326049E-04
   178 -.47016301323258E-05
   179 0.63757138223814E-05
   180 0.76075214267170E-04
   181 0.10241470317936E-04
   182 0.86481302519450E-03
   183 0.49732572848454E-03
   184 0.94111060577408E-04
   185 -.13749400976109E-03
   186 -.90630965446583E-04
   187 0.12908606790043E-03
   188 0.65039809075226E-03
   189 -.18278774878043E-02
   190 0.11063737817417E-03
   191 0.89548868940414E-04
   192 -.70247489095834E-04
   193 0.73146889022683E-04
   194 0.38297969256239E-03
   195 -.70391215217873E-03
   196 0.13030462474692E-03
   197 0.13040410383615E-03
   198 -.79154201517616E-04
   199 0.83708405238118E-03
   200 0.10539243174892E-02
   201 -.68834975513115E-03
   202 -.59966345500815E-03
   203 -.63034945958204E-03
   204 0.35990531996988E-03
 Sym=     2a   
 Ene= -.19117232754912E+02
 Spin= Alpha
 Occup= 2.000000
     1 0.12101820142959E-04
     2 -.58098849030593E-04
     3 0.27689265466463E-03
     4 0.34996089783296E-02
     5 -.28402352018246E-02
     6 0.36900202908397E-04
     7 0.33661692240291E-04
     8 -.22858929138881E-04
     9 0.24194121384058E-02
    10 -.10713543187365E-02
    11 -.19747464415800E-02
    12 -.18107567882904E-03
    13 0.74302566595714E-03
    14 0.24386615860380E-03
    15 0.12093653507258E-04
    16 -.10028635165810E-04
    17 -.20650183414472E-05
    18 0.16935194967182E-04
    19 -.19581469341244E-04
    20 -.12182182156502E-04
    21 0.11660370654217E-03
    22 -.20123861728322E-03
    23 0.84634910741041E-04
    24 -.45060929432460E-03
    25 -.29705314258658E-03
    26 0.33036365166832E-03
    27 -.45609841786210E-05
    28 -.11009859477164E-04
    29 0.13340050558339E-04
    30 0.23412856642324E-05
    31 0.11696431936277E-04
    32 -.13852051221907E-04
    33 0.37779167363862E-05
    34 0.30748445919183E-05
    35 -.40455047011306E-05
    36 -.70537121369357E-05
    37 0.22523530674973E-04
    38 -.11043921148986E-03
    39 0.96033312562001E-03
    40 -.27466356482234E-02
    41 -.20043099833857E-02
    42 -.33823759923817E-04
    43 0.72452720088720E-04
    44 0.35915348874332E-04
    45 0.35363984918584E-02
    46 0.18985057370622E-02
    47 -.23846859471979E-02
    48 -.29417039580068E-02
    49 0.11599258387125E-02
    50 0.23798489701541E-02
    51 0.99435497296456E-05
    52 0.21239425489241E-04
    53 -.31182975218886E-04
    54 0.37407348952744E-04
    55 -.66613070478639E-04
    56 -.12389029647379E-04
    57 -.24120293675228E-03
    58 0.37174850848237E-03
    59 -.13054557173009E-03
    60 0.99449577765917E-03
    61 0.74278680206726E-03
    62 -.76056854697775E-03
    63 -.29777449162244E-05
    64 -.52825027130959E-05
    65 -.51653427246353E-05
    66 0.13656260363025E-04
    67 0.44228400537805E-05
    68 0.19062826372238E-04
    69 -.96611963316255E-05
    70 0.26643810409052E-05
    71 -.12132791896617E-04
    72 -.77902299619352E-06
    73 0.38234761657174E-04
    74 -.23631919914211E-03
    75 0.69455240814630E-03
    76 0.40824885606854E-02
    77 0.91468273607300E-04
    78 -.19857884784286E-04
    79 0.74690450042455E-03
    80 0.12298923835927E-03
    81 0.17007779788507E-02
    82 0.10156936764415E-01
    83 0.19103236580997E-03
    84 -.36315713099910E-03
    85 -.72642782094339E-02
    86 -.77811035965020E-03
    87 -.93693781558145E-04
    88 0.20275586696876E-03
    89 -.10906208541062E-03
    90 0.36475380239988E-04
    91 -.25604914320728E-04
    92 0.28086534776327E-04
    93 -.19497602226137E-02
    94 0.33477843032362E-02
    95 -.13980240806225E-02
    96 -.21387634840057E-04
    97 0.91427436124551E-03
    98 0.72481427543446E-03
    99 0.43767988270365E-06
   100 -.80549176666427E-05
   101 -.74711403839991E-05
   102 0.24352319585196E-04
   103 0.30505961572775E-04
   104 0.52351063140382E-05
   105 -.24939528767262E-04
   106 -.19699155499309E-04
   107 0.47884803468012E-05
   108 -.96451398063229E-04
   109 0.43508320003193E+00
   110 0.63949449791680E+00
   111 0.36690726444750E-01
   112 -.32094434215032E-01
   113 0.11370258562423E-01
   114 -.69725499809592E-04
   115 -.22887321789260E-02
   116 -.27852272152149E-03
   117 0.27408480941998E-03
   118 0.70709658446410E-02
   119 0.81625924209224E-03
   120 0.29125992630863E-04
   121 -.29960947539447E-03
   122 -.65108752017586E-04
   123 -.10360294814508E-03
   124 0.18865636775573E-03
   125 -.85053419610655E-04
   126 0.12401633101981E-04
   127 0.33134895337934E-04
   128 0.33434105863495E-04
   129 0.50542977982932E-03
   130 -.94891650495928E-03
   131 0.44348672512995E-03
   132 -.58812714028494E-04
   133 -.98460359190299E-04
   134 -.18120741380907E-03
   135 -.22206334694595E-05
   136 0.45456505978136E-04
   137 -.73942333804635E-05
   138 0.29054578662943E-05
   139 -.31513728845375E-04
   140 -.58436448853385E-05
   141 0.73834568199278E-07
   142 -.29472573586667E-04
   143 0.15764049973467E-04
   144 0.78950784872142E-06
   145 0.38085988960476E-04
   146 0.73837446330632E-04
   147 -.34642061799777E-03
   148 0.20299800841263E-02
   149 -.19519053840189E-02
   150 -.45211528555384E-04
   151 -.11830200663064E-04
   152 0.32317214981378E-04
   153 -.17537089955117E-03
   154 0.71228179035752E-03
   155 0.23492007234589E-03
   156 0.24763423456218E-03
   157 0.81482830560677E-03
   158 -.68396801586491E-04
   159 0.12502335451865E-04
   160 0.28440222155155E-05
   161 -.15346357667381E-04
   162 0.20231817036277E-04
   163 -.47120601860807E-04
   164 -.71932690462295E-05
   165 -.80020452504639E-04
   166 0.42105318855531E-04
   167 0.37915133649107E-04
   168 -.19711347897139E-03
   169 0.13580699589065E-03
   170 0.13701384438719E-03
   171 -.12295779405521E-05
   172 -.22082294208354E-04
   173 0.13269599194969E-04
   174 -.51262527309696E-05
   175 0.16133911992174E-04
   176 -.12537184308226E-04
   177 0.67759046461948E-05
   178 0.13492594577244E-04
   179 -.52658511922498E-05
   180 0.14145702863600E-05
   181 0.99131565706374E-04
   182 0.19589723075867E-04
   183 0.89769970825342E-04
   184 0.65772044202713E-04
   185 -.23843188254609E-04
   186 -.52895100247925E-04
   187 0.83383841017377E-04
   188 0.70479247206491E-03
   189 0.23418176505150E-03
   190 0.95487801605004E-04
   191 0.10428501807572E-03
   192 -.56738791026615E-04
   193 0.81840818995233E-05
   194 0.12980797898694E-02
   195 0.61294125405190E-03
   196 0.16075183208354E-03
   197 0.25519429133705E-03
   198 -.83990878217172E-04
   199 0.12688909424626E-03
   200 -.10682746208012E-03
   201 0.22282923980154E-03
   202 0.23028294558130E-04
   203 -.35575057168509E-04
   204 -.22443390577284E-04
 Sym=     3a   
 Ene= -.10309074513832E+02
 Spin= Alpha
 Occup= 2.000000
     1 0.39869556649798E-05
     2 -.29281050754686E-04
     3 0.60264861302809E-03
     4 -.53275780291506E-02
     5 -.29394804230157E-02
     6 0.18969471540015E-03
     7 -.12319696214197E-03
     8 -.16050916058064E-03
     9 -.40663092615975E-02
    10 0.11370989796418E-02
    11 0.32224748540829E-02
    12 -.20263967077436E-02
    13 -.22278308056774E-02
    14 0.12018598855755E-02
    15 -.45771409418855E-05
    16 -.92133331438811E-06
    17 0.54984742562736E-05
    18 -.38563561520073E-04
    19 0.44575458821226E-07
    20 0.28500273685499E-04
    21 -.46968185602379E-03
    22 0.72364550331821E-03
    23 -.25396364729442E-03
    24 0.41470668055514E-03
    25 0.62490098306955E-03
    26 -.22111524794207E-03
    27 0.48879274781358E-05
    28 0.52106181516632E-04
    29 -.34687482741276E-04
    30 0.62516001074151E-05
    31 -.45014546083132E-04
    32 0.36126262859501E-04
    33 -.12809442973536E-04
    34 -.24893232268347E-04
    35 0.10411878767206E-04
    36 0.19842998434815E-04
    37 0.55277920640262E-03
    38 0.84272726992770E-03
    39 -.83538629655964E-03
    40 0.13580314778854E-01
    41 -.83282336264844E-02
    42 0.16182105915864E-03
    43 0.26790540301032E-04
    44 -.11786939878653E-03
    45 -.35956023997318E-03
    46 0.43971776929460E-02
    47 0.90725042080069E-03
    48 -.25244512074101E-02
    49 0.17707829660010E-02
    50 0.21541784604676E-02
    51 0.55334605452079E-06
    52 -.34539682472432E-04
    53 0.33986336417911E-04
    54 -.83072007287210E-04
    55 0.26870422444980E-04
    56 0.49107284879600E-04
    57 0.15870724455233E-03
    58 -.21015172081561E-03
    59 0.51444476263274E-04
    60 -.58062054824804E-03
    61 -.52305083388125E-03
    62 0.45962790681028E-03
    63 0.79388892692053E-04
    64 0.10021309046644E-03
    65 -.11844904712745E-03
    66 -.13308986281546E-03
    67 -.13785305339620E-03
    68 0.59943161594102E-04
    69 0.26578486384737E-04
    70 0.34030838852258E-05
    71 0.98972911154130E-04
    72 0.14140848035471E-03
    73 0.46694503900794E+00
    74 0.60806144467298E+00
    75 0.38288546802509E-01
    76 -.15671598736256E-01
    77 0.10841530005717E-01
    78 0.33746596939468E-03
    79 0.51366759717973E-03
    80 -.18039529909130E-03
    81 0.53265287976991E-02
    82 0.97373673511658E-02
    83 -.25961358595336E-02
    84 -.44981329272362E-02
    85 -.37308189587575E-02
    86 0.28426197694188E-02
    87 -.43511292506482E-03
    88 0.11885983416780E-02
    89 -.75348541661316E-03
    90 0.98242636163272E-05
    91 -.73473970831614E-03
    92 0.40546047390980E-03
    93 -.13154100660565E-02
    94 0.20137120898894E-02
    95 -.69830202383293E-03
    96 -.16578082204146E-02
    97 0.25357718869347E-03
    98 0.17081100184806E-02
    99 -.12128572843018E-03
   100 0.59389335403381E-03
   101 0.55204344728530E-04
   102 0.87841316377458E-04
   103 -.43462328347732E-03
   104 -.18456789318302E-03
   105 0.74880563704815E-04
   106 -.36216826312565E-03
   107 0.11050349270322E-03
   108 0.23554495446135E-03
   109 -.81315082500327E-04
   110 -.30061235888424E-03
   111 0.31720338370449E-02
   112 -.12045301484588E-01
   113 -.55935248243001E-03
   114 -.35518693902412E-04
   115 -.59607032499874E-03
   116 -.59505188428015E-04
   117 0.58800734454750E-03
   118 0.79599874050993E-02
   119 0.70925409851500E-03
   120 0.11468857196299E-02
   121 0.95337234646736E-04
   122 -.84862210592562E-03
   123 -.46478637144825E-05
   124 -.33185632222252E-05
   125 0.79664269367077E-05
   126 0.16191103872209E-04
   127 0.35193096720244E-04
   128 -.18280360666322E-04
   129 0.97070466441472E-03
   130 -.18595230396104E-02
   131 0.88881837519566E-03
   132 -.25208631135710E-03
   133 -.18383902243995E-03
   134 -.25484352185027E-03
   135 -.69232456655622E-05
   136 0.17524763370711E-03
   137 -.35491348663158E-04
   138 0.85900806011670E-05
   139 -.13055317700067E-03
   140 -.68150642321428E-05
   141 0.69842815870967E-06
   142 -.10456619611837E-03
   143 0.54431705166523E-04
   144 0.33593085037134E-04
   145 -.20605502648380E-04
   146 -.20796775293427E-03
   147 0.22957734087077E-02
   148 -.57336474789549E-02
   149 0.28186363994973E-02
   150 -.49784708921438E-03
   151 0.35200224830923E-03
   152 0.42538334586453E-03
   153 0.31004286170403E-02
   154 -.20426352125501E-02
   155 -.26274895471175E-02
   156 -.21800501157996E-03
   157 0.19327657371327E-02
   158 0.44377879353055E-03
   159 0.13809272574155E-04
   160 -.36070957876390E-04
   161 0.22261685302235E-04
   162 -.10419103870542E-03
   163 -.36328466461187E-04
   164 0.74069660204271E-04
   165 -.16733233594861E-03
   166 0.24029892701523E-03
   167 -.72966591066622E-04
   168 0.10871571403016E-02
   169 0.76800853451691E-03
   170 -.86693296154373E-03
   171 -.75295569064796E-04
   172 0.10376542836754E-03
   173 0.91687355865853E-04
   174 0.54312194157104E-04
   175 -.84593934244816E-04
   176 -.84043127827317E-04
   177 0.46707412342944E-04
   178 -.54621996681710E-04
   179 -.38968368408640E-04
   180 0.15386664792142E-03
   181 -.20232606171975E-03
   182 -.55829093981230E-03
   183 0.15638074545755E-02
   184 -.22348829906558E-04
   185 0.24395378105421E-03
   186 0.51969642907189E-04
   187 -.89986293811170E-04
   188 -.11961422587442E-02
   189 -.13946158846281E-02
   190 -.24614532027581E-03
   191 -.10585592542102E-03
   192 0.16982087650863E-03
   193 0.20246085543604E-03
   194 -.29993943725530E-05
   195 0.25525988033019E-02
   196 -.32143293126810E-03
   197 -.12936522524180E-04
   198 0.23980539183524E-03
   199 -.39207762729606E-03
   200 -.95493220356059E-03
   201 0.34164858672480E-03
   202 0.64518482269333E-04
   203 0.29766482280405E-03
   204 -.54155139682735E-05
 Sym=     4a   
 Ene= -.10197182631915E+02
 Spin= Alpha
 Occup= 2.000000
     1 0.40423667108748E+00
     2 0.52720720475819E+00
     3 0.30613179154736E-01
     4 0.78389528245687E-02
     5 0.51164202181704E-02
     6 0.43673617412114E-03
     7 -.20716158474299E-03
     8 -.35852533914344E-03
     9 0.76544532202552E-02
    10 -.44692041438462E-02
    11 -.64042472367532E-02
    12 -.10437595983383E-02
    13 -.15752699288139E-02
    14 0.55682443960959E-03
    15 0.35799947187731E-04
    16 0.20818480572732E-03
    17 -.24398475291505E-03
    18 0.34848257281196E-04
    19 -.57685157865101E-03
    20 0.11427356725947E-03
    21 0.75494024328122E-04
    22 0.38294525641595E-03
    23 -.45843928074407E-03
    24 -.62161812905635E-03
    25 -.14718077879007E-02
    26 0.78485436095467E-03
    27 0.50582661905147E-04
    28 0.26369568623732E-03
    29 -.11954960114888E-03
    30 -.95235406353818E-04
    31 -.24515248296967E-03
    32 0.26612973859608E-04
    33 0.27371644052139E-04
    34 -.10863240491039E-03
    35 0.13377964705152E-03
    36 0.15080401167583E-03
    37 0.23312845847022E+00
    38 0.30416707920882E+00
    39 0.20734170575112E-01
    40 -.21181755840798E-01
    41 0.78045129681200E-02
    42 -.30791128998318E-03
    43 0.24319767692046E-03
    44 0.26702531969354E-03
    45 0.14997371725060E-01
    46 -.15818865184540E-02
    47 -.11507076352868E-01
    48 0.17452309418117E-02
    49 0.44034983212272E-02
    50 -.67539638278565E-03
    51 -.39258013645597E-04
    52 0.17378702893374E-03
    53 -.13452901528815E-03
    54 0.15756655205615E-03
    55 -.12389462953652E-03
    56 -.54619761807376E-04
    57 -.15958924083823E-02
    58 0.24384500059830E-02
    59 -.84255759760077E-03
    60 0.31468243125556E-02
    61 0.31049604644466E-02
    62 -.22025657554977E-02
    63 -.72090242926225E-04
    64 0.16170075838479E-05
    65 0.17366552889446E-03
    66 -.59236621259032E-05
    67 -.30800171503006E-05
    68 -.20553032338488E-03
    69 0.10264287234441E-03
    70 0.91057382373064E-06
    71 -.27466433389003E-04
    72 0.12965310152944E-03
    73 -.30958005717528E-03
    74 -.37942144838276E-03
    75 -.32079661620195E-03
    76 -.10298358477810E-02
    77 -.69633975172011E-02
    78 -.41118926428346E-03
    79 -.14317327377476E-03
    80 0.28842777765791E-03
    81 0.64274365243537E-02
    82 0.58170488338669E-02
    83 -.39914061553446E-02
    84 0.16537677536413E-02
    85 0.86545151362593E-03
    86 -.11181195992990E-02
    87 -.16577331070216E-04
    88 0.83435606615344E-05
    89 0.82337704086812E-05
    90 -.15970503581244E-04
    91 0.42508449932915E-04
    92 0.75654543688747E-05
    93 -.15218886075499E-02
    94 0.20786401284481E-02
    95 -.55675152089824E-03
    96 -.22002642443712E-02
    97 0.67834498842262E-03
    98 0.20644329827566E-02
    99 -.60882118206943E-04
   100 0.39733954075445E-04
   101 0.10137400065334E-03
   102 0.61918903468394E-04
   103 0.16923251371371E-04
   104 -.12805295831411E-03
   105 0.19763029486548E-04
   106 -.70231944767901E-04
   107 -.79545356530734E-05
   108 -.75680249190566E-04
   109 0.60956793986990E-05
   110 -.85888522950704E-04
   111 0.11405908824761E-02
   112 -.55580305730608E-02
   113 -.73608330127973E-03
   114 -.12016826442887E-03
   115 -.17478237402589E-03
   116 0.65096740928069E-04
   117 0.81692640683629E-03
   118 0.24742153652351E-02
   119 -.25645934258228E-03
   120 0.26040094902185E-03
   121 0.52640831728633E-03
   122 -.11984375128848E-03
   123 0.67361024365914E-05
   124 -.91509662426706E-05
   125 0.24148638060792E-05
   126 0.34068562087016E-04
   127 0.99875118964252E-05
   128 -.29265001128392E-04
   129 0.81727655808660E-04
   130 -.19202311841658E-03
   131 0.11029546260792E-03
   132 -.21085496435990E-03
   133 -.41826235314835E-04
   134 0.11509968011484E-03
   135 0.40328888146025E-05
   136 -.46717766820834E-05
   137 -.40007587114032E-05
   138 -.47489891474625E-05
   139 0.27565570084133E-05
   140 0.28008518858675E-05
   141 -.66169897362730E-06
   142 0.35112891336888E-05
   143 0.25667291782957E-05
   144 -.36398306032391E-05
   145 0.53246802745856E-05
   146 -.74458394188456E-04
   147 0.99531690101693E-03
   148 -.40271645535480E-02
   149 0.69304806417089E-03
   150 -.16109639688442E-03
   151 -.16115388983891E-04
   152 0.11880286214776E-03
   153 0.16052880383380E-02
   154 -.21585359442508E-03
   155 -.12384558647601E-02
   156 -.70242978332254E-03
   157 -.15615209345861E-03
   158 0.50551908303799E-03
   159 0.25755541531437E-05
   160 -.22326989042930E-04
   161 0.19751434889787E-04
   162 -.16586603717445E-04
   163 0.28134102615131E-04
   164 0.24206731460986E-05
   165 -.10813258186046E-03
   166 0.19794361411304E-03
   167 -.89811032252571E-04
   168 0.11074058232015E-03
   169 0.85100920130992E-04
   170 -.45367376667547E-04
   171 0.46608461874274E-05
   172 0.62912802244899E-05
   173 -.70372215837128E-05
   174 -.76006210861341E-05
   175 -.80366754001341E-05
   176 0.32733991468183E-05
   177 0.13474397414791E-05
   178 -.40396274834163E-06
   179 0.61680243535280E-05
   180 0.70297383055607E-05
   181 -.63332327124293E-03
   182 -.27427216276203E-02
   183 -.86427443261847E-04
   184 -.21960313342246E-03
   185 0.20737848964791E-02
   186 0.46497901804734E-03
   187 -.55955321480156E-03
   188 -.25649251535766E-02
   189 -.19874464178733E-02
   190 -.15972366270154E-02
   191 -.10684243659707E-02
   192 0.10464279782895E-02
   193 -.51005141947614E-03