[Molden Format]
[Title]
                                                                                
[Atoms] AU
 c     1    6 -.11463723776100E+01 0.90775645277111E+00 0.11027308787932E+01
 c     2    6 0.10858266197356E+01 -.90546717546218E+00 0.76516251149009E+00
 c     3    6 0.28624915825106E+01 0.45244796521440E-01 -.12970873938542E+01
 o     4    8 0.33957742513219E+01 0.22397764079774E+01 -.16085897380155E+01
 o     5    8 0.38568832640204E+01 -.18368786723787E+01 -.26744353454924E+01
 n     6    7 0.26432696843210E+01 -.12365171229169E+01 0.30298849948350E+01
 c     7    6 -.28535072987084E+01 0.10479163844027E+01 -.12127114754919E+01
 o     8    8 -.27666749809871E+01 -.50569881002739E+00 -.29057682481120E+01
 n     9    7 -.45427570400795E+01 0.29902240532084E+01 -.12132114558548E+01
 h    10    1 -.22887571304065E+01 0.25820157711721E+00 0.27004530652091E+01
 h    11    1 -.44026109474631E+00 0.27902851727035E+01 0.15768353240691E+01
 h    12    1 0.39230860272309E+00 -.27544090792365E+01 0.18985245650656E+00
 h    13    1 0.50097803590193E+01 -.10792010550716E+01 -.38836640393092E+01
 h    14    1 0.31850710594863E+01 0.45624642682087E+00 0.37464273804419E+01
 h    15    1 0.16861398722092E+01 -.21833397306033E+01 0.43893499377084E+01
 h    16    1 -.44360374047201E+01 0.44087076980339E+01 0.43746237213620E-01
 h    17    1 -.56431779680889E+01 0.32177954142726E+01 -.27489713106854E+01
[GTO]
    1 0
 s    6 1.00
 0.13575349682000E+05 0.60645503603591E-03
 0.20352333680000E+04 0.46979088884982E-02
 0.46322562359000E+03 0.24332477647552E-01
 0.13120019598000E+03 0.97399968307759E-01
 0.42853015891000E+02 0.30195584253780E+00
 0.15584185766000E+02 0.66233609137875E+00
 s    2 1.00
 0.62067138508000E+01 0.65595308539952E+00
 0.25764896527000E+01 0.37585633285142E+00
 s    1 1.00
 0.57696339419000E+00 0.10000000000000E+01
 s    1 1.00
 0.22972831358000E+00 0.10000000000000E+01
 s    1 1.00
 0.95164440028000E-01 0.10000000000000E+01
 p    4 1.00
 0.34697232244000E+02 0.11327220003114E-01
 0.79582622826000E+01 0.76169659202087E-01
 0.23780826883000E+01 0.30192252202676E+00
 0.81433208183000E+00 0.72785027349547E+00
 p    1 1.00
 0.28887547253000E+00 0.10000000000000E+01
 p    1 1.00
 0.10056823671000E+00 0.10000000000000E+01
 d    1 1.00
 0.10970000000000E+01 0.10000000000000E+01
 d    1 1.00
 0.31800000000000E+00 0.10000000000000E+01
 f    1 1.00
 0.76100000000000E+00 0.10000000000000E+01
 
    2 0
 s    6 1.00
 0.13575349682000E+05 0.60645503603591E-03
 0.20352333680000E+04 0.46979088884982E-02
 0.46322562359000E+03 0.24332477647552E-01
 0.13120019598000E+03 0.97399968307759E-01
 0.42853015891000E+02 0.30195584253780E+00
 0.15584185766000E+02 0.66233609137875E+00
 s    2 1.00
 0.62067138508000E+01 0.65595308539952E+00
 0.25764896527000E+01 0.37585633285142E+00
 s    1 1.00
 0.57696339419000E+00 0.10000000000000E+01
 s    1 1.00
 0.22972831358000E+00 0.10000000000000E+01
 s    1 1.00
 0.95164440028000E-01 0.10000000000000E+01
 p    4 1.00
 0.34697232244000E+02 0.11327220003114E-01
 0.79582622826000E+01 0.76169659202087E-01
 0.23780826883000E+01 0.30192252202676E+00
 0.81433208183000E+00 0.72785027349547E+00
 p    1 1.00
 0.28887547253000E+00 0.10000000000000E+01
 p    1 1.00
 0.10056823671000E+00 0.10000000000000E+01
 d    1 1.00
 0.10970000000000E+01 0.10000000000000E+01
 d    1 1.00
 0.31800000000000E+00 0.10000000000000E+01
 f    1 1.00
 0.76100000000000E+00 0.10000000000000E+01
 
    3 0
 s    6 1.00
 0.13575349682000E+05 0.60645503603591E-03
 0.20352333680000E+04 0.46979088884982E-02
 0.46322562359000E+03 0.24332477647552E-01
 0.13120019598000E+03 0.97399968307759E-01
 0.42853015891000E+02 0.30195584253780E+00
 0.15584185766000E+02 0.66233609137875E+00
 s    2 1.00
 0.62067138508000E+01 0.65595308539952E+00
 0.25764896527000E+01 0.37585633285142E+00
 s    1 1.00
 0.57696339419000E+00 0.10000000000000E+01
 s    1 1.00
 0.22972831358000E+00 0.10000000000000E+01
 s    1 1.00
 0.95164440028000E-01 0.10000000000000E+01
 p    4 1.00
 0.34697232244000E+02 0.11327220003114E-01
 0.79582622826000E+01 0.76169659202087E-01
 0.23780826883000E+01 0.30192252202676E+00
 0.81433208183000E+00 0.72785027349547E+00
 p    1 1.00
 0.28887547253000E+00 0.10000000000000E+01
 p    1 1.00
 0.10056823671000E+00 0.10000000000000E+01
 d    1 1.00
 0.10970000000000E+01 0.10000000000000E+01
 d    1 1.00
 0.31800000000000E+00 0.10000000000000E+01
 f    1 1.00
 0.76100000000000E+00 0.10000000000000E+01
 
    4 0
 s    6 1.00
 0.27032382631000E+05 0.57227335211155E-03
 0.40523871392000E+04 0.44353233492995E-02
 0.92232722710000E+03 0.23020107706038E-01
 0.26124070989000E+03 0.92822490667928E-01
 0.85354641351000E+02 0.29378500009671E+00
 0.31035035245000E+02 0.67401604501641E+00
 s    2 1.00
 0.12260860728000E+02 0.63839937025506E+00
 0.49987076005000E+01 0.39534587125718E+00
 s    1 1.00
 0.11703108158000E+01 0.10000000000000E+01
 s    1 1.00
 0.46474740994000E+00 0.10000000000000E+01
 s    1 1.00
 0.18504536357000E+00 0.10000000000000E+01
 p    4 1.00
 0.63274954801000E+02 0.12018332222616E-01
 0.14627049379000E+02 0.83005421790056E-01
 0.44501223456000E+01 0.31991743925964E+00
 0.15275799647000E+01 0.70715542916104E+00
 p    1 1.00
 0.52935117943000E+00 0.10000000000000E+01
 p    1 1.00
 0.17478421270000E+00 0.10000000000000E+01
 d    1 1.00
 0.23140000000000E+01 0.10000000000000E+01
 d    1 1.00
 0.64500000000000E+00 0.10000000000000E+01
 f    1 1.00
 0.14280000000000E+01 0.10000000000000E+01
 
    5 0
 s    6 1.00
 0.27032382631000E+05 0.57227335211155E-03
 0.40523871392000E+04 0.44353233492995E-02
 0.92232722710000E+03 0.23020107706038E-01
 0.26124070989000E+03 0.92822490667928E-01
 0.85354641351000E+02 0.29378500009671E+00
 0.31035035245000E+02 0.67401604501641E+00
 s    2 1.00
 0.12260860728000E+02 0.63839937025506E+00
 0.49987076005000E+01 0.39534587125718E+00
 s    1 1.00
 0.11703108158000E+01 0.10000000000000E+01
 s    1 1.00
 0.46474740994000E+00 0.10000000000000E+01
 s    1 1.00
 0.18504536357000E+00 0.10000000000000E+01
 p    4 1.00
 0.63274954801000E+02 0.12018332222616E-01
 0.14627049379000E+02 0.83005421790056E-01
 0.44501223456000E+01 0.31991743925964E+00
 0.15275799647000E+01 0.70715542916104E+00
 p    1 1.00
 0.52935117943000E+00 0.10000000000000E+01
 p    1 1.00
 0.17478421270000E+00 0.10000000000000E+01
 d    1 1.00
 0.23140000000000E+01 0.10000000000000E+01
 d    1 1.00
 0.64500000000000E+00 0.10000000000000E+01
 f    1 1.00
 0.14280000000000E+01 0.10000000000000E+01
 
    6 0
 s    6 1.00
 0.19730800647000E+05 0.58626402628763E-03
 0.29578958745000E+04 0.45428820586397E-02
 0.67322133595000E+03 0.23558413450084E-01
 0.19068249494000E+03 0.94709193292923E-01
 0.62295441898000E+02 0.29719784913376E+00
 0.22654161182000E+02 0.66916246895232E+00
 s    2 1.00
 0.89791477428000E+01 0.64596683630063E+00
 0.36863002370000E+01 0.38700574393705E+00
 s    1 1.00
 0.84660076805000E+00 0.10000000000000E+01
 s    1 1.00
 0.33647133771000E+00 0.10000000000000E+01
 s    1 1.00
 0.13647653675000E+00 0.10000000000000E+01
 p    4 1.00
 0.49200380510000E+02 0.11448825101764E-01
 0.11346790537000E+02 0.78422337970864E-01
 0.34273972411000E+01 0.30818094738830E+00
 0.11785525134000E+01 0.72027196368413E+00
 p    1 1.00
 0.41642204972000E+00 0.10000000000000E+01
 p    1 1.00
 0.14260826011000E+00 0.10000000000000E+01
 d    1 1.00
 0.16540000000000E+01 0.10000000000000E+01
 d    1 1.00
 0.46900000000000E+00 0.10000000000000E+01
 f    1 1.00
 0.10930000000000E+01 0.10000000000000E+01
 
    7 0
 s    6 1.00
 0.13575349682000E+05 0.60645503603591E-03
 0.20352333680000E+04 0.46979088884982E-02
 0.46322562359000E+03 0.24332477647552E-01
 0.13120019598000E+03 0.97399968307759E-01
 0.42853015891000E+02 0.30195584253780E+00
 0.15584185766000E+02 0.66233609137875E+00
 s    2 1.00
 0.62067138508000E+01 0.65595308539952E+00
 0.25764896527000E+01 0.37585633285142E+00
 s    1 1.00
 0.57696339419000E+00 0.10000000000000E+01
 s    1 1.00
 0.22972831358000E+00 0.10000000000000E+01
 s    1 1.00
 0.95164440028000E-01 0.10000000000000E+01
 p    4 1.00
 0.34697232244000E+02 0.11327220003114E-01
 0.79582622826000E+01 0.76169659202087E-01
 0.23780826883000E+01 0.30192252202676E+00
 0.81433208183000E+00 0.72785027349547E+00
 p    1 1.00
 0.28887547253000E+00 0.10000000000000E+01
 p    1 1.00
 0.10056823671000E+00 0.10000000000000E+01
 d    1 1.00
 0.10970000000000E+01 0.10000000000000E+01
 d    1 1.00
 0.31800000000000E+00 0.10000000000000E+01
 f    1 1.00
 0.76100000000000E+00 0.10000000000000E+01
 
    8 0
 s    6 1.00
 0.27032382631000E+05 0.57227335211155E-03
 0.40523871392000E+04 0.44353233492995E-02
 0.92232722710000E+03 0.23020107706038E-01
 0.26124070989000E+03 0.92822490667928E-01
 0.85354641351000E+02 0.29378500009671E+00
 0.31035035245000E+02 0.67401604501641E+00
 s    2 1.00
 0.12260860728000E+02 0.63839937025506E+00
 0.49987076005000E+01 0.39534587125718E+00
 s    1 1.00
 0.11703108158000E+01 0.10000000000000E+01
 s    1 1.00
 0.46474740994000E+00 0.10000000000000E+01
 s    1 1.00
 0.18504536357000E+00 0.10000000000000E+01
 p    4 1.00
 0.63274954801000E+02 0.12018332222616E-01
 0.14627049379000E+02 0.83005421790056E-01
 0.44501223456000E+01 0.31991743925964E+00
 0.15275799647000E+01 0.70715542916104E+00
 p    1 1.00
 0.52935117943000E+00 0.10000000000000E+01
 p    1 1.00
 0.17478421270000E+00 0.10000000000000E+01
 d    1 1.00
 0.23140000000000E+01 0.10000000000000E+01
 d    1 1.00
 0.64500000000000E+00 0.10000000000000E+01
 f    1 1.00
 0.14280000000000E+01 0.10000000000000E+01
 
    9 0
 s    6 1.00
 0.19730800647000E+05 0.58626402628763E-03
 0.29578958745000E+04 0.45428820586397E-02
 0.67322133595000E+03 0.23558413450084E-01
 0.19068249494000E+03 0.94709193292923E-01
 0.62295441898000E+02 0.29719784913376E+00
 0.22654161182000E+02 0.66916246895232E+00
 s    2 1.00
 0.89791477428000E+01 0.64596683630063E+00
 0.36863002370000E+01 0.38700574393705E+00
 s    1 1.00
 0.84660076805000E+00 0.10000000000000E+01
 s    1 1.00
 0.33647133771000E+00 0.10000000000000E+01
 s    1 1.00
 0.13647653675000E+00 0.10000000000000E+01
 p    4 1.00
 0.49200380510000E+02 0.11448825101764E-01
 0.11346790537000E+02 0.78422337970864E-01
 0.34273972411000E+01 0.30818094738830E+00
 0.11785525134000E+01 0.72027196368413E+00
 p    1 1.00
 0.41642204972000E+00 0.10000000000000E+01
 p    1 1.00
 0.14260826011000E+00 0.10000000000000E+01
 d    1 1.00
 0.16540000000000E+01 0.10000000000000E+01
 d    1 1.00
 0.46900000000000E+00 0.10000000000000E+01
 f    1 1.00
 0.10930000000000E+01 0.10000000000000E+01
 
   10 0
 s    3 1.00
 0.34061341000000E+02 0.25439307208879E-01
 0.51235746000000E+01 0.19008594890375E+00
 0.11646626000000E+01 0.85244113011042E+00
 s    1 1.00
 0.32723041000000E+00 0.10000000000000E+01
 s    1 1.00
 0.10307241000000E+00 0.10000000000000E+01
 p    1 1.00
 0.80000000000000E+00 0.10000000000000E+01
 
   11 0
 s    3 1.00
 0.34061341000000E+02 0.25439307208879E-01
 0.51235746000000E+01 0.19008594890375E+00
 0.11646626000000E+01 0.85244113011042E+00
 s    1 1.00
 0.32723041000000E+00 0.10000000000000E+01
 s    1 1.00
 0.10307241000000E+00 0.10000000000000E+01
 p    1 1.00
 0.80000000000000E+00 0.10000000000000E+01
 
   12 0
 s    3 1.00
 0.34061341000000E+02 0.25439307208879E-01
 0.51235746000000E+01 0.19008594890375E+00
 0.11646626000000E+01 0.85244113011042E+00
 s    1 1.00
 0.32723041000000E+00 0.10000000000000E+01
 s    1 1.00
 0.10307241000000E+00 0.10000000000000E+01
 p    1 1.00
 0.80000000000000E+00 0.10000000000000E+01
 
   13 0
 s    3 1.00
 0.34061341000000E+02 0.25439307208879E-01
 0.51235746000000E+01 0.19008594890375E+00
 0.11646626000000E+01 0.85244113011042E+00
 s    1 1.00
 0.32723041000000E+00 0.10000000000000E+01
 s    1 1.00
 0.10307241000000E+00 0.10000000000000E+01
 p    1 1.00
 0.80000000000000E+00 0.10000000000000E+01
 
   14 0
 s    3 1.00
 0.34061341000000E+02 0.25439307208879E-01
 0.51235746000000E+01 0.19008594890375E+00
 0.11646626000000E+01 0.85244113011042E+00
 s    1 1.00
 0.32723041000000E+00 0.10000000000000E+01
 s    1 1.00
 0.10307241000000E+00 0.10000000000000E+01
 p    1 1.00
 0.80000000000000E+00 0.10000000000000E+01
 
   15 0
 s    3 1.00
 0.34061341000000E+02 0.25439307208879E-01
 0.51235746000000E+01 0.19008594890375E+00
 0.11646626000000E+01 0.85244113011042E+00
 s    1 1.00
 0.32723041000000E+00 0.10000000000000E+01
 s    1 1.00
 0.10307241000000E+00 0.10000000000000E+01
 p    1 1.00
 0.80000000000000E+00 0.10000000000000E+01
 
   16 0
 s    3 1.00
 0.34061341000000E+02 0.25439307208879E-01
 0.51235746000000E+01 0.19008594890375E+00
 0.11646626000000E+01 0.85244113011042E+00
 s    1 1.00
 0.32723041000000E+00 0.10000000000000E+01
 s    1 1.00
 0.10307241000000E+00 0.10000000000000E+01
 p    1 1.00
 0.80000000000000E+00 0.10000000000000E+01
 
   17 0
 s    3 1.00
 0.34061341000000E+02 0.25439307208879E-01
 0.51235746000000E+01 0.19008594890375E+00
 0.11646626000000E+01 0.85244113011042E+00
 s    1 1.00
 0.32723041000000E+00 0.10000000000000E+01
 s    1 1.00
 0.10307241000000E+00 0.10000000000000E+01
 p    1 1.00
 0.80000000000000E+00 0.10000000000000E+01
 
[MO]
 Sym=     1a   
 Ene= -.19171520894329E+02
 Spin= Alpha
 Occup= 2.000000
     1 -.12924410596948E-05
     2 0.65084286091522E-05
     3 -.22774467772995E-03
     4 0.17733997143906E-02
     5 0.77725422335682E-02
     6 0.14510536894193E-04
     7 0.12811000572879E-04
     8 -.30847846817190E-04
     9 0.75140554180359E-03
    10 -.67612397223645E-03
    11 0.11769105871319E-03
    12 0.17519255560008E-02
    13 -.11827313468668E-02
    14 0.54831067348142E-03
    15 0.47663859232723E-05
    16 -.77822719584627E-05
    17 0.30158860351904E-05
    18 -.18732051764634E-06
    19 -.35146228415894E-04
    20 0.27272250894105E-05
    21 0.30400888312983E-03
    22 -.67218920301916E-04
    23 -.23678996282792E-03
    24 -.25159980122432E-03
    25 0.28739279951662E-03
    26 -.93877473320195E-04
    27 0.15174379795844E-04
    28 -.47407468716686E-05
    29 0.14211319385499E-05
    30 -.64981287175583E-05
    31 -.10394617417151E-04
    32 -.12640314668729E-05
    33 -.13860438126386E-04
    34 0.16754996778654E-04
    35 -.64261710488331E-06
    36 -.79204484409317E-05
    37 0.62973445627990E-05
    38 -.28638776684353E-04
    39 -.40415116161578E-03
    40 0.53082550765689E-02
    41 -.14578993592500E-01
    42 -.22969668667497E-04
    43 -.20786184764562E-04
    44 -.57987580036092E-04
    45 0.28200020660572E-02
    46 0.79938620148070E-03
    47 -.19859903581813E-02
    48 0.60249345908920E-03
    49 -.51016268924180E-02
    50 -.17293719337322E-02
    51 -.94264849506174E-05
    52 0.17612414206502E-04
    53 -.81859292558842E-05
    54 0.23799313916547E-05
    55 -.81838202951234E-04
    56 0.13070800314590E-04
    57 0.15507115186510E-03
    58 -.74130989914598E-03
    59 0.58623874728087E-03
    60 0.43615928406599E-03
    61 0.32400531478904E-04
    62 -.73775914634928E-03
    63 -.14128405703987E-04
    64 -.27057559067817E-04
    65 0.63692875701222E-05
    66 0.36396437932352E-05
    67 -.13359620995794E-05
    68 -.77469449889440E-05
    69 0.15315601547452E-04
    70 0.37637486928092E-04
    71 -.79835099607852E-06
    72 -.30397313882980E-04
    73 0.40786863380627E-04
    74 -.22368440540292E-03
    75 -.36051973805163E-03
    76 0.26908244871612E-02
    77 -.18941421195705E-02
    78 0.16173108282564E-04
    79 -.99739750534820E-04
    80 0.54236890271153E-04
    81 0.37797664927348E-02
    82 -.41153114591402E-02
    83 -.51569838215566E-02
    84 -.22960953183800E-02
    85 0.66060078338435E-02
    86 0.35411461678433E-02
    87 -.98453411943944E-04
    88 0.82489713634516E-04
    89 0.15963698309427E-04
    90 -.13998538651925E-03
    91 -.15660429284378E-03
    92 0.18669660551524E-03
    93 -.64030402483374E-03
    94 0.10653199517409E-02
    95 -.42501592690711E-03
    96 -.16450444808781E-02
    97 -.44245343564081E-04
    98 0.21725940148215E-02
    99 -.84761217259386E-04
   100 -.29066819535969E-04
   101 0.64589035238889E-04
   102 0.11905246826750E-04
   103 0.45053292269225E-04
   104 -.40789106946673E-04
   105 0.10181385936182E-03
   106 -.60560616459370E-05
   107 -.45866177090497E-04
   108 0.11284343113337E-03
   109 -.34642306942279E-04
   110 -.42735210310926E-04
   111 -.18208934587581E-03
   112 0.15060772150469E-02
   113 -.26891056439686E-02
   114 -.52365701834974E-04
   115 -.94054896243399E-04
   116 0.31038975104512E-04
   117 0.33449323983338E-03
   118 -.13780724412910E-03
   119 -.35612824383085E-03
   120 0.53788844235891E-03
   121 -.47112574952390E-03
   122 -.70097252691621E-03
   123 -.79627612288424E-05
   124 0.15293844019836E-04
   125 -.73310827909932E-05
   126 0.76214953298436E-05
   127 -.44670935180598E-04
   128 -.56409588968425E-06
   129 -.10491695213730E-04
   130 0.14825687033770E-04
   131 -.43339918200394E-05
   132 -.65856153346052E-04
   133 0.18229722532977E-03
   134 0.62565375578984E-04
   135 0.31661875938466E-05
   136 0.49190821514778E-05
   137 -.36727968714984E-05
   138 -.24479020503695E-05
   139 -.48232237653251E-05
   140 -.31683617951309E-05
   141 -.17999843632450E-05
   142 -.17764174812411E-05
   143 0.80959358784623E-05
   144 -.15591376981800E-04
   145 0.43508951036698E+00
   146 0.63948120726963E+00
   147 0.36800792616551E-01
   148 -.30674361399229E-01
   149 0.14169608274974E-01
   150 0.10089553473903E-03
   151 0.19222371730903E-02
   152 0.15919719308342E-03
   153 0.11049947805137E-02
   154 -.49589318391928E-02
   155 -.19299028357538E-02
   156 -.79323372790514E-03
   157 0.98825591852606E-03
   158 0.10065065805076E-02
   159 -.27646059721032E-04
   160 0.23303304569915E-04
   161 0.43427551511169E-05
   162 -.29960617336527E-04
   163 -.10451111008047E-03
   164 0.55946431551463E-04
   165 0.19419076824263E-03
   166 -.18722932037163E-03
   167 -.69614478709947E-05
   168 0.24940129346188E-03
   169 0.59724514890084E-03
   170 -.41882721894097E-03
   171 -.49737910998862E-05
   172 0.25420427114658E-04
   173 0.97295447648573E-05
   174 0.30952021365401E-04
   175 -.64135216218115E-05
   176 0.30303043401678E-04
   177 -.24278980362263E-04
   178 -.27691560205460E-04
   179 -.43356597492287E-04
   180 0.66027389277574E-04
   181 0.37250908043737E-05
   182 -.22167176228002E-04
   183 0.35374977547591E-03
   184 -.21301593531627E-02
   185 0.55240131942236E-02
   186 -.86271821163184E-05
   187 -.23318498630666E-04
   188 -.64360185045182E-05
   189 0.29414593571549E-03
   190 0.57443886757941E-04
   191 0.64376122097100E-03
   192 -.52362109306751E-03
   193 0.10859718211033E-02
   194 -.14942085213597E-02
   195 0.18377672604965E-04
   196 0.10346473648300E-05
   197 -.19412319969795E-04
   198 0.14855558044108E-04
   199 0.33509075041966E-05
   200 0.10249613965389E-04
   201 -.58996554009946E-04
   202 0.84626810499004E-04
   203 -.25630256489057E-04
   204 -.37107065295676E-04
   205 -.92733629232261E-04
   206 0.18546931564128E-05
   207 -.40279976039885E-05
   208 0.19405602739693E-05
   209 -.16262039282275E-06
   210 -.23437007370048E-05
   211 0.51677533888616E-05
   212 0.10526067273834E-05
   213 0.77478266104396E-05
   214 -.77712882010802E-05
   215 -.83442857565579E-06
   216 0.34137229779536E-05
   217 -.14261620104533E-05
   218 0.66561350192183E-05
   219 0.11408057861705E-03
   220 -.98346597065981E-03
   221 -.21967942013114E-02
   222 -.29725858761647E-04
   223 -.15572259468052E-04
   224 -.12936628029615E-04
   225 0.11690797085735E-03
   226 0.14747825417157E-04
   227 0.80991747182762E-06
   228 0.22838855821937E-03
   229 -.14074910664242E-02
   230 -.69084881630452E-03
   231 -.29273217652260E-04
   232 0.14315698312131E-04
   233 0.14957519340128E-04
   234 0.43082912946481E-05
   235 -.12912675938580E-04
   236 -.78431758039227E-05
   237 0.24677789041649E-03
   238 -.84449452539480E-04
   239 -.16232843787701E-03
   240 0.17659317439038E-04
   241 0.41971998316156E-04
   242 -.81728522701255E-04
   243 0.14307496887808E-05
   244 -.92377375952646E-05
   245 -.10424002268361E-04
   246 0.17758550985558E-05
   247 0.63889250128032E-05
   248 0.98752855258477E-05
   249 -.36954072362961E-05
   250 0.60048005199871E-05
   251 0.41099810759528E-05
   252 0.22999193193159E-05
   253 0.60120021630554E-05
   254 -.16476697582108E-05
   255 0.63242881165586E-04
   256 -.56010270791093E-04
   257 0.42910060853868E-03
   258 0.40011233748329E-04
   259 -.11279038315788E-04
   260 -.21292328512425E-04
   261 -.21352149621704E-03
   262 0.12828695802802E-03
   263 0.14909447957365E-03
   264 0.66815254474731E-03
   265 0.10187983060966E-03
   266 0.46007292313039E-04
   267 -.13304573729798E-04
   268 0.50350435393791E-05
   269 0.82695301904187E-05
   270 0.21749064976905E-05
   271 -.79000622111652E-05
   272 -.32226735308083E-05
   273 0.30045656319538E-04
   274 -.90359703837865E-05
   275 -.21009685935751E-04
   276 -.58558766627420E-05
   277 0.24436232725044E-04
   278 0.17939523803326E-04
   279 0.18934431420429E-05
   280 0.21940386340339E-05
   281 0.59002482454695E-06
   282 -.23101606529663E-06
   283 -.22556076965199E-05
   284 0.48989169672775E-06
   285 -.23093044809866E-05
   286 -.68800402205646E-06
   287 -.12814930663874E-05
   288 0.48188349485971E-06
   289 0.11115349813724E-05
   290 -.64317346820922E-05
   291 0.51285187098595E-04
   292 -.36900202692099E-03
   293 0.24080040546353E-02
   294 -.25516176766856E-04
   295 -.87104057334517E-05
   296 0.64819045252612E-05
   297 0.14614111354100E-03
   298 0.76781192001015E-04
   299 0.45430085005172E-04
   300 0.81808948819430E-03
   301 -.51401210563942E-03
   302 0.37186752572391E-03
   303 -.75806573262164E-05
   304 0.50015482946826E-05
   305 0.25791090315338E-05
   306 0.10232060184963E-04
   307 -.11639939761227E-05
   308 -.20847450848254E-05
   309 0.48997578479838E-04
   310 -.34355746241180E-04
   311 -.14641832238658E-04
   312 -.60013885243604E-04
   313 0.62565742737152E-05
   314 0.14417274262704E-04
   315 0.10839234959008E-05
   316 0.44330332917998E-05
   317 0.30922469921095E-07
   318 -.68233432342629E-06
   319 -.57740818674509E-05
   320 -.10751843423442E-06
   321 -.77190164811980E-06
   322 -.17345640473957E-06
   323 0.66031587368963E-07
   324 0.36308571620808E-07
   325 0.37390840473954E-04
   326 0.71906845345600E-04
   327 -.60175806393587E-03
   328 0.50256716149734E-05
   329 0.18095878529612E-04
   330 -.84699650846753E-05
   331 0.48647878249681E-05
   332 0.28549222791584E-03
   333 -.65778356483897E-03
   334 -.36094369984687E-04
   335 -.54831729267819E-04
   336 -.39802663611084E-04
   337 0.53314103014424E-04
   338 0.11004451527178E-02
   339 -.25625692813617E-03
   340 0.15596613511875E-03
   341 0.62885347520542E-04
   342 -.23494203755603E-04
   343 0.81735388014387E-03
   344 0.11915350217899E-02
   345 -.26622178163497E-03
   346 -.59698461078967E-03
   347 -.41092500078137E-03
   348 0.62555162759211E-03
   349 0.30362352483515E-04
   350 -.47317634386642E-03
   351 -.19315401266897E-03
   352 -.31932462370704E-04
   353 0.50844023837350E-04
   354 0.60532489154292E-04
   355 0.20434138895000E-04
   356 -.98818909733588E-04
   357 0.38357314303435E-03
   358 -.19346413139480E-04
   359 -.12169245994344E-04
   360 0.28412898791964E-05
   361 0.20035996104403E-04
   362 -.23453002252837E-03
   363 0.18928026080795E-03
   364 0.47053042092196E-05
   365 0.25692961123181E-04
   366 0.47058160705429E-05
   367 -.59271907734148E-06
   368 0.57044787351877E-04
   369 0.21208134114070E-03
   370 0.50301145617003E-05
   371 -.36941480654881E-06
   372 0.19422016756667E-04
 Sym=     2a   
 Ene= -.19114981331134E+02
 Spin= Alpha
 Occup= 2.000000
     1 -.10790680840467E-05
     2 0.57301188205194E-05
     3 0.59630829059353E-04
     4 -.34046472765062E-04
     5 -.55444131137852E-02
     6 0.15650603558423E-04
     7 -.23893865371095E-04
     8 -.71380894848997E-04
     9 0.19507156584836E-03
    10 0.25091289046361E-03
    11 0.63980612874934E-03
    12 -.13826164181617E-02
    13 0.80994719751177E-03
    14 -.18198743085668E-03
    15 -.55682255385349E-05
    16 -.99242526351107E-05
    17 0.15492478173646E-04
    18 0.46401938697354E-05
    19 -.22257418622693E-04
    20 -.37672386718382E-05
    21 0.18617830559608E-03
    22 0.40305818595206E-04
    23 -.22648412419128E-03
    24 0.77626506133581E-04
    25 0.23140841868103E-03
    26 -.12428878392857E-03
    27 0.69994224138189E-05
    28 -.10995359406438E-04
    29 -.57824764077941E-05
    30 -.13215600088106E-04
    31 0.18376402354081E-05
    32 -.63370219376198E-05
    33 0.38248894957856E-05
    34 0.12914182406494E-04
    35 0.14095028133290E-04
    36 -.24767907093991E-04
    37 0.98384600089390E-05
    38 -.44679012254738E-04
    39 -.57856323809498E-03
    40 0.51623636554414E-02
    41 -.78810178678738E-03
    42 0.26590499658348E-04
    43 -.10946627876670E-04
    44 -.14041314513907E-03
    45 0.20240545644212E-02
    46 0.21962462166626E-02
    47 -.60211943633068E-03
    48 -.12683414274988E-02
    49 0.28451497417162E-02
    50 0.34553919324822E-02
    51 -.27842810477402E-04
    52 0.16309579074054E-04
    53 0.11533231403348E-04
    54 0.37677279434606E-04
    55 -.12263620899034E-03
    56 0.47404779992824E-06
    57 0.36822178645278E-03
    58 -.70198620005222E-03
    59 0.33376441359945E-03
    60 0.47939867424705E-04
    61 0.49711232647045E-03
    62 -.90016704402437E-03
    63 -.10334675220509E-04
    64 -.19354703129324E-04
    65 -.50509994407888E-05
    66 -.18648018121142E-04
    67 0.89197609667387E-05
    68 0.59112352131173E-05
    69 0.32513439912206E-04
    70 0.17047298162160E-04
    71 0.86539164923303E-06
    72 -.17114583423653E-04
    73 0.36429034228292E-04
    74 -.22723227580098E-03
    75 0.54706219176852E-03
    76 0.54165084842332E-02
    77 -.49517479422253E-02
    78 0.20249820214938E-03
    79 0.71849857232939E-03
    80 0.19087245231967E-04
    81 0.24521632653505E-02
    82 0.88255451692481E-02
    83 -.22618228712922E-02
    84 0.65168467280312E-04
    85 -.73533084341150E-02
    86 -.81966121662495E-03
    87 -.11706286880409E-03
    88 0.19010456559172E-03
    89 -.73041696787633E-04
    90 0.10662285986564E-03
    91 -.73984511351561E-04
    92 -.84554293717747E-04
    93 -.11800375787532E-02
    94 0.29456543867190E-02
    95 -.17656168079657E-02
    96 0.10794719658853E-02
    97 0.78410967991370E-03
    98 -.56256163726597E-03
    99 -.82069764454909E-05
   100 0.23500303486092E-05
   101 -.16592050880979E-05
   102 -.12294224499861E-04
   103 -.17176735732972E-04
   104 -.27970509618885E-04
   105 0.23305038832975E-04
   106 0.14023839167766E-04
   107 0.30196566838245E-04
   108 -.86774955241463E-04
   109 0.43508580265043E+00
   110 0.63946986922353E+00
   111 0.36907943945530E-01
   112 -.32690294753884E-01
   113 0.14169468152974E-01
   114 -.51666735190997E-03
   115 -.21699391875672E-02
   116 0.31528622902040E-03
   117 0.17068138711351E-02
   118 0.65714533010250E-02
   119 -.10863442123748E-02
   120 -.72057712777112E-03
   121 -.78040937954006E-03
   122 0.64130364782017E-03
   123 -.74460386508210E-04
   124 0.16734431718588E-03
   125 -.92883930677670E-04
   126 0.74481592398455E-04
   127 0.26213139870557E-04
   128 -.48572711948811E-04
   129 0.37635128368923E-03
   130 -.83639093983167E-03
   131 0.46003965614244E-03
   132 -.37907217171725E-03
   133 -.52584737356350E-04
   134 0.23271215315843E-03
   135 -.17191456076871E-04
   136 0.38792733778616E-04
   137 0.82282624880488E-05
   138 0.30287193576882E-04
   139 -.21079548313398E-04
   140 0.29972999400567E-05
   141 -.72224349248308E-05
   142 -.30966365543825E-04
   143 -.14036672496050E-04
   144 -.44449741246042E-05
   145 0.34003419414482E-04
   146 0.54907761077406E-04
   147 -.22678200391620E-03
   148 0.15579122756632E-02
   149 -.16286672284640E-02
   150 -.61786993708341E-04
   151 0.11407467164081E-04
   152 0.49951235824959E-04
   153 0.18590525442533E-03
   154 0.65530456305195E-03
   155 -.35724776665792E-04
   156 0.44887812926244E-04
   157 0.68781259900592E-03
   158 -.15443080397535E-03
   159 -.36756435699191E-05
   160 -.17713861218723E-05
   161 0.54470296917913E-05
   162 0.58298003103448E-05
   163 -.49425071611979E-04
   164 0.23599945329154E-05
   165 -.55540859723070E-04
   166 0.12647065807410E-03
   167 -.70929798351031E-04
   168 -.65158728268335E-04
   169 0.19406392320527E-03
   170 0.67600411408043E-04
   171 -.14903009073350E-05
   172 -.14817313168299E-04
   173 0.31709969571019E-05
   174 -.11953535470738E-04
   175 0.92234919141050E-05
   176 -.89317350087047E-05
   177 0.13952983952176E-04
   178 0.10656019778826E-04
   179 0.46773961571898E-05
   180 0.85052605298386E-05
   181 -.42877938059478E-06
   182 0.18308496439802E-05
   183 0.25150985982221E-03
   184 -.17943572053428E-02
   185 -.82044249686520E-03
   186 -.36839824716371E-04
   187 -.26356603628103E-04
   188 -.69745739413293E-04
   189 0.53225037921433E-03
   190 -.30514425528571E-04
   191 0.11713124157909E-02
   192 0.48235501086074E-03
   193 -.68035102567804E-04
   194 -.65860088554705E-03
   195 0.18657280782636E-04
   196 -.28179475961084E-05
   197 -.15839333186527E-04
   198 -.67007774651284E-05
   199 0.21873290777375E-05
   200 0.19826960910882E-04
   201 -.17218174040559E-04
   202 0.13213185337444E-03
   203 -.11491367933388E-03
   204 0.38595907349141E-04
   205 -.17398419796691E-03
   206 -.35444899492704E-04
   207 -.51172798123556E-05
   208 -.26873601050805E-05
   209 0.63203702202958E-05
   210 -.44694617349249E-05
   211 0.32243129338280E-05
   212 -.25745953893917E-05
   213 0.11335013047114E-04
   214 0.38115899116062E-06
   215 -.59050710839364E-05
   216 -.73913796331707E-06
   217 -.27058876008445E-05
   218 0.13724898999982E-04
   219 0.73102955129783E-04
   220 -.12714267487993E-02
   221 0.24738789148534E-02
   222 -.78223359591817E-04
   223 -.10019194784441E-04
   224 -.10402819403952E-04
   225 0.50626340331245E-03