[Molden Format]
[Title]
                                                                                
[Atoms] AU
 c     1    6 -.43679583302666E+01 -.41732226423568E+00 0.19145702277066E+01
 c     2    6 -.25352510285943E+01 -.14492890634691E+01 -.50378967550420E-01
 o     3    8 -.61795851594730E-01 -.71820558618091E+00 0.65020261196863E+00
 c     4    6 0.18269857639155E+01 -.14127535766542E+01 -.10986314271343E+01
 c     5    6 0.43467053961713E+01 -.28325845136680E+00 -.31319628970935E+00
 n     6    7 0.44135566733918E+01 0.24531798958220E+01 -.70241833676827E+00
 n     7    7 -.44044648257691E+01 0.23278089665280E+01 0.21799016336934E+01
 h     8    1 -.62730485944298E+01 -.10707941989865E+01 0.14499701445694E+01
 h     9    1 -.38857540437267E+01 -.12363881610283E+01 0.37499022821417E+01
 h    10    1 -.29946816943535E+01 -.68987218924376E+00 -.19334148662570E+01
 h    11    1 -.26808648855499E+01 -.35233384822017E+01 -.15505479254974E+00
 h    12    1 0.13183732400665E+01 -.75074861610496E+00 -.30051769358987E+01
 h    13    1 0.19948573152399E+01 -.34839163094583E+01 -.11882719372841E+01
 h    14    1 0.46174094227240E+01 -.65604582076812E+00 0.16989646787518E+01
 h    15    1 0.58431365343337E+01 -.13098488622822E+01 -.13304917737731E+01
 h    16    1 0.45693507450786E+01 0.28745064834710E+01 -.25646883838964E+01
 h    17    1 0.59180542396441E+01 0.32356664821709E+01 0.18329775649961E+00
 h    18    1 -.26170540294352E+01 0.29613096673683E+01 0.24638473215885E+01
 h    19    1 -.50275579365684E+01 0.31493100866200E+01 0.56367147676864E+00
[GTO]
    1 0
 s    6 1.00
 0.13575349682000E+05 0.60645503603591E-03
 0.20352333680000E+04 0.46979088884982E-02
 0.46322562359000E+03 0.24332477647552E-01
 0.13120019598000E+03 0.97399968307759E-01
 0.42853015891000E+02 0.30195584253780E+00
 0.15584185766000E+02 0.66233609137875E+00
 s    2 1.00
 0.62067138508000E+01 0.65595308539952E+00
 0.25764896527000E+01 0.37585633285142E+00
 s    1 1.00
 0.57696339419000E+00 0.10000000000000E+01
 s    1 1.00
 0.22972831358000E+00 0.10000000000000E+01
 s    1 1.00
 0.95164440028000E-01 0.10000000000000E+01
 p    4 1.00
 0.34697232244000E+02 0.11327220003114E-01
 0.79582622826000E+01 0.76169659202087E-01
 0.23780826883000E+01 0.30192252202676E+00
 0.81433208183000E+00 0.72785027349547E+00
 p    1 1.00
 0.28887547253000E+00 0.10000000000000E+01
 p    1 1.00
 0.10056823671000E+00 0.10000000000000E+01
 d    1 1.00
 0.10970000000000E+01 0.10000000000000E+01
 d    1 1.00
 0.31800000000000E+00 0.10000000000000E+01
 f    1 1.00
 0.76100000000000E+00 0.10000000000000E+01
 
    2 0
 s    6 1.00
 0.13575349682000E+05 0.60645503603591E-03
 0.20352333680000E+04 0.46979088884982E-02
 0.46322562359000E+03 0.24332477647552E-01
 0.13120019598000E+03 0.97399968307759E-01
 0.42853015891000E+02 0.30195584253780E+00
 0.15584185766000E+02 0.66233609137875E+00
 s    2 1.00
 0.62067138508000E+01 0.65595308539952E+00
 0.25764896527000E+01 0.37585633285142E+00
 s    1 1.00
 0.57696339419000E+00 0.10000000000000E+01
 s    1 1.00
 0.22972831358000E+00 0.10000000000000E+01
 s    1 1.00
 0.95164440028000E-01 0.10000000000000E+01
 p    4 1.00
 0.34697232244000E+02 0.11327220003114E-01
 0.79582622826000E+01 0.76169659202087E-01
 0.23780826883000E+01 0.30192252202676E+00
 0.81433208183000E+00 0.72785027349547E+00
 p    1 1.00
 0.28887547253000E+00 0.10000000000000E+01
 p    1 1.00
 0.10056823671000E+00 0.10000000000000E+01
 d    1 1.00
 0.10970000000000E+01 0.10000000000000E+01
 d    1 1.00
 0.31800000000000E+00 0.10000000000000E+01
 f    1 1.00
 0.76100000000000E+00 0.10000000000000E+01
 
    3 0
 s    6 1.00
 0.27032382631000E+05 0.57227335211155E-03
 0.40523871392000E+04 0.44353233492995E-02
 0.92232722710000E+03 0.23020107706038E-01
 0.26124070989000E+03 0.92822490667928E-01
 0.85354641351000E+02 0.29378500009671E+00
 0.31035035245000E+02 0.67401604501641E+00
 s    2 1.00
 0.12260860728000E+02 0.63839937025506E+00
 0.49987076005000E+01 0.39534587125718E+00
 s    1 1.00
 0.11703108158000E+01 0.10000000000000E+01
 s    1 1.00
 0.46474740994000E+00 0.10000000000000E+01
 s    1 1.00
 0.18504536357000E+00 0.10000000000000E+01
 p    4 1.00
 0.63274954801000E+02 0.12018332222616E-01
 0.14627049379000E+02 0.83005421790056E-01
 0.44501223456000E+01 0.31991743925964E+00
 0.15275799647000E+01 0.70715542916104E+00
 p    1 1.00
 0.52935117943000E+00 0.10000000000000E+01
 p    1 1.00
 0.17478421270000E+00 0.10000000000000E+01
 d    1 1.00
 0.23140000000000E+01 0.10000000000000E+01
 d    1 1.00
 0.64500000000000E+00 0.10000000000000E+01
 f    1 1.00
 0.14280000000000E+01 0.10000000000000E+01
 
    4 0
 s    6 1.00
 0.13575349682000E+05 0.60645503603591E-03
 0.20352333680000E+04 0.46979088884982E-02
 0.46322562359000E+03 0.24332477647552E-01
 0.13120019598000E+03 0.97399968307759E-01
 0.42853015891000E+02 0.30195584253780E+00
 0.15584185766000E+02 0.66233609137875E+00
 s    2 1.00
 0.62067138508000E+01 0.65595308539952E+00
 0.25764896527000E+01 0.37585633285142E+00
 s    1 1.00
 0.57696339419000E+00 0.10000000000000E+01
 s    1 1.00
 0.22972831358000E+00 0.10000000000000E+01
 s    1 1.00
 0.95164440028000E-01 0.10000000000000E+01
 p    4 1.00
 0.34697232244000E+02 0.11327220003114E-01
 0.79582622826000E+01 0.76169659202087E-01
 0.23780826883000E+01 0.30192252202676E+00
 0.81433208183000E+00 0.72785027349547E+00
 p    1 1.00
 0.28887547253000E+00 0.10000000000000E+01
 p    1 1.00
 0.10056823671000E+00 0.10000000000000E+01
 d    1 1.00
 0.10970000000000E+01 0.10000000000000E+01
 d    1 1.00
 0.31800000000000E+00 0.10000000000000E+01
 f    1 1.00
 0.76100000000000E+00 0.10000000000000E+01
 
    5 0
 s    6 1.00
 0.13575349682000E+05 0.60645503603591E-03
 0.20352333680000E+04 0.46979088884982E-02
 0.46322562359000E+03 0.24332477647552E-01
 0.13120019598000E+03 0.97399968307759E-01
 0.42853015891000E+02 0.30195584253780E+00
 0.15584185766000E+02 0.66233609137875E+00
 s    2 1.00
 0.62067138508000E+01 0.65595308539952E+00
 0.25764896527000E+01 0.37585633285142E+00
 s    1 1.00
 0.57696339419000E+00 0.10000000000000E+01
 s    1 1.00
 0.22972831358000E+00 0.10000000000000E+01
 s    1 1.00
 0.95164440028000E-01 0.10000000000000E+01
 p    4 1.00
 0.34697232244000E+02 0.11327220003114E-01
 0.79582622826000E+01 0.76169659202087E-01
 0.23780826883000E+01 0.30192252202676E+00
 0.81433208183000E+00 0.72785027349547E+00
 p    1 1.00
 0.28887547253000E+00 0.10000000000000E+01
 p    1 1.00
 0.10056823671000E+00 0.10000000000000E+01
 d    1 1.00
 0.10970000000000E+01 0.10000000000000E+01
 d    1 1.00
 0.31800000000000E+00 0.10000000000000E+01
 f    1 1.00
 0.76100000000000E+00 0.10000000000000E+01
 
    6 0
 s    6 1.00
 0.19730800647000E+05 0.58626402628763E-03
 0.29578958745000E+04 0.45428820586397E-02
 0.67322133595000E+03 0.23558413450084E-01
 0.19068249494000E+03 0.94709193292923E-01
 0.62295441898000E+02 0.29719784913376E+00
 0.22654161182000E+02 0.66916246895232E+00
 s    2 1.00
 0.89791477428000E+01 0.64596683630063E+00
 0.36863002370000E+01 0.38700574393705E+00
 s    1 1.00
 0.84660076805000E+00 0.10000000000000E+01
 s    1 1.00
 0.33647133771000E+00 0.10000000000000E+01
 s    1 1.00
 0.13647653675000E+00 0.10000000000000E+01
 p    4 1.00
 0.49200380510000E+02 0.11448825101764E-01
 0.11346790537000E+02 0.78422337970864E-01
 0.34273972411000E+01 0.30818094738830E+00
 0.11785525134000E+01 0.72027196368413E+00
 p    1 1.00
 0.41642204972000E+00 0.10000000000000E+01
 p    1 1.00
 0.14260826011000E+00 0.10000000000000E+01
 d    1 1.00
 0.16540000000000E+01 0.10000000000000E+01
 d    1 1.00
 0.46900000000000E+00 0.10000000000000E+01
 f    1 1.00
 0.10930000000000E+01 0.10000000000000E+01
 
    7 0
 s    6 1.00
 0.19730800647000E+05 0.58626402628763E-03
 0.29578958745000E+04 0.45428820586397E-02
 0.67322133595000E+03 0.23558413450084E-01
 0.19068249494000E+03 0.94709193292923E-01
 0.62295441898000E+02 0.29719784913376E+00
 0.22654161182000E+02 0.66916246895232E+00
 s    2 1.00
 0.89791477428000E+01 0.64596683630063E+00
 0.36863002370000E+01 0.38700574393705E+00
 s    1 1.00
 0.84660076805000E+00 0.10000000000000E+01
 s    1 1.00
 0.33647133771000E+00 0.10000000000000E+01
 s    1 1.00
 0.13647653675000E+00 0.10000000000000E+01
 p    4 1.00
 0.49200380510000E+02 0.11448825101764E-01
 0.11346790537000E+02 0.78422337970864E-01
 0.34273972411000E+01 0.30818094738830E+00
 0.11785525134000E+01 0.72027196368413E+00
 p    1 1.00
 0.41642204972000E+00 0.10000000000000E+01
 p    1 1.00
 0.14260826011000E+00 0.10000000000000E+01
 d    1 1.00
 0.16540000000000E+01 0.10000000000000E+01
 d    1 1.00
 0.46900000000000E+00 0.10000000000000E+01
 f    1 1.00
 0.10930000000000E+01 0.10000000000000E+01
 
    8 0
 s    3 1.00
 0.34061341000000E+02 0.25439307208879E-01
 0.51235746000000E+01 0.19008594890375E+00
 0.11646626000000E+01 0.85244113011042E+00
 s    1 1.00
 0.32723041000000E+00 0.10000000000000E+01
 s    1 1.00
 0.10307241000000E+00 0.10000000000000E+01
 p    1 1.00
 0.80000000000000E+00 0.10000000000000E+01
 
    9 0
 s    3 1.00
 0.34061341000000E+02 0.25439307208879E-01
 0.51235746000000E+01 0.19008594890375E+00
 0.11646626000000E+01 0.85244113011042E+00
 s    1 1.00
 0.32723041000000E+00 0.10000000000000E+01
 s    1 1.00
 0.10307241000000E+00 0.10000000000000E+01
 p    1 1.00
 0.80000000000000E+00 0.10000000000000E+01
 
   10 0
 s    3 1.00
 0.34061341000000E+02 0.25439307208879E-01
 0.51235746000000E+01 0.19008594890375E+00
 0.11646626000000E+01 0.85244113011042E+00
 s    1 1.00
 0.32723041000000E+00 0.10000000000000E+01
 s    1 1.00
 0.10307241000000E+00 0.10000000000000E+01
 p    1 1.00
 0.80000000000000E+00 0.10000000000000E+01
 
   11 0
 s    3 1.00
 0.34061341000000E+02 0.25439307208879E-01
 0.51235746000000E+01 0.19008594890375E+00
 0.11646626000000E+01 0.85244113011042E+00
 s    1 1.00
 0.32723041000000E+00 0.10000000000000E+01
 s    1 1.00
 0.10307241000000E+00 0.10000000000000E+01
 p    1 1.00
 0.80000000000000E+00 0.10000000000000E+01
 
   12 0
 s    3 1.00
 0.34061341000000E+02 0.25439307208879E-01
 0.51235746000000E+01 0.19008594890375E+00
 0.11646626000000E+01 0.85244113011042E+00
 s    1 1.00
 0.32723041000000E+00 0.10000000000000E+01
 s    1 1.00
 0.10307241000000E+00 0.10000000000000E+01
 p    1 1.00
 0.80000000000000E+00 0.10000000000000E+01
 
   13 0
 s    3 1.00
 0.34061341000000E+02 0.25439307208879E-01
 0.51235746000000E+01 0.19008594890375E+00
 0.11646626000000E+01 0.85244113011042E+00
 s    1 1.00
 0.32723041000000E+00 0.10000000000000E+01
 s    1 1.00
 0.10307241000000E+00 0.10000000000000E+01
 p    1 1.00
 0.80000000000000E+00 0.10000000000000E+01
 
   14 0
 s    3 1.00
 0.34061341000000E+02 0.25439307208879E-01
 0.51235746000000E+01 0.19008594890375E+00
 0.11646626000000E+01 0.85244113011042E+00
 s    1 1.00
 0.32723041000000E+00 0.10000000000000E+01
 s    1 1.00
 0.10307241000000E+00 0.10000000000000E+01
 p    1 1.00
 0.80000000000000E+00 0.10000000000000E+01
 
   15 0
 s    3 1.00
 0.34061341000000E+02 0.25439307208879E-01
 0.51235746000000E+01 0.19008594890375E+00
 0.11646626000000E+01 0.85244113011042E+00
 s    1 1.00
 0.32723041000000E+00 0.10000000000000E+01
 s    1 1.00
 0.10307241000000E+00 0.10000000000000E+01
 p    1 1.00
 0.80000000000000E+00 0.10000000000000E+01
 
   16 0
 s    3 1.00
 0.34061341000000E+02 0.25439307208879E-01
 0.51235746000000E+01 0.19008594890375E+00
 0.11646626000000E+01 0.85244113011042E+00
 s    1 1.00
 0.32723041000000E+00 0.10000000000000E+01
 s    1 1.00
 0.10307241000000E+00 0.10000000000000E+01
 p    1 1.00
 0.80000000000000E+00 0.10000000000000E+01
 
   17 0
 s    3 1.00
 0.34061341000000E+02 0.25439307208879E-01
 0.51235746000000E+01 0.19008594890375E+00
 0.11646626000000E+01 0.85244113011042E+00
 s    1 1.00
 0.32723041000000E+00 0.10000000000000E+01
 s    1 1.00
 0.10307241000000E+00 0.10000000000000E+01
 p    1 1.00
 0.80000000000000E+00 0.10000000000000E+01
 
   18 0
 s    3 1.00
 0.34061341000000E+02 0.25439307208879E-01
 0.51235746000000E+01 0.19008594890375E+00
 0.11646626000000E+01 0.85244113011042E+00
 s    1 1.00
 0.32723041000000E+00 0.10000000000000E+01
 s    1 1.00
 0.10307241000000E+00 0.10000000000000E+01
 p    1 1.00
 0.80000000000000E+00 0.10000000000000E+01
 
   19 0
 s    3 1.00
 0.34061341000000E+02 0.25439307208879E-01
 0.51235746000000E+01 0.19008594890375E+00
 0.11646626000000E+01 0.85244113011042E+00
 s    1 1.00
 0.32723041000000E+00 0.10000000000000E+01
 s    1 1.00
 0.10307241000000E+00 0.10000000000000E+01
 p    1 1.00
 0.80000000000000E+00 0.10000000000000E+01
 
[MO]
 Sym=     1a   
 Ene= -.19122335188113E+02
 Spin= Alpha
 Occup= 2.000000
     1 0.61453972714207E-05
     2 -.31259555882824E-04
     3 0.39040784394870E-03
     4 -.26609430605835E-03
     5 0.28832354995583E-02
     6 0.15223031846400E-03
     7 -.13717134413316E-04
     8 -.25949662532587E-04
     9 -.50759917697152E-03
    10 0.26250141337557E-03
    11 0.19993980828397E-03
    12 0.22373938212288E-03
    13 -.69706928273846E-03
    14 -.87019622883122E-03
    15 0.56524339076096E-04
    16 -.27534239360841E-04
    17 -.28990099715255E-04
    18 0.34731661992436E-04
    19 0.14089396419782E-04
    20 -.61791761106756E-05
    21 -.83843958688319E-03
    22 0.51734896807231E-03
    23 0.32109061881089E-03
    24 -.21449887690077E-03
    25 0.47984344598279E-04
    26 -.29213613836660E-04
    27 -.39955779090432E-04
    28 0.47563996623483E-05
    29 -.28809244962399E-04
    30 0.27511956570792E-04
    31 0.11532089691605E-04
    32 0.48064611819386E-04
    33 0.26094346313310E-04
    34 -.17913469475506E-04
    35 -.94129537495664E-05
    36 0.71013085681634E-05
    37 0.28210456876076E-04
    38 -.14466789367453E-03
    39 -.16903263684105E-02
    40 0.71109819014896E-02
    41 -.74553255874217E-02
    42 -.12713893001831E-03
    43 -.11555776907565E-03
    44 -.16149509036105E-03
    45 0.55070338459823E-02
    46 0.24110228999599E-02
    47 0.26063142036765E-02
    48 0.61385561893982E-03
    49 -.41477469574876E-03
    50 -.83840386149727E-03
    51 0.28553288700181E-03
    52 -.12817494762671E-03
    53 -.15735793937510E-03
    54 0.11395130647742E-03
    55 0.92753802885162E-04
    56 0.11451313481347E-04
    57 0.12928163306156E-02
    58 -.85305926222592E-03
    59 -.43975706838966E-03
    60 0.95637910326769E-03
    61 0.10096510530244E-02
    62 0.68568111831060E-03
    63 0.12459670845356E-03
    64 -.72617050939303E-04
    65 -.66547429643243E-04
    66 -.90716275298298E-04
    67 0.11565953100705E-03
    68 0.10444767872656E-03
    69 -.76447750626630E-04
    70 -.18233533671542E-04
    71 -.15164932880451E-04
    72 0.68643946239600E-04
    73 0.43512749175854E+00
    74 0.63936813175328E+00
    75 0.37814590695450E-01
    76 -.32152727424363E-01
    77 0.75112546401945E-02
    78 -.37926185481397E-03
    79 -.98071525274057E-03
    80 -.16822177284115E-02
    81 0.91662101496611E-03
    82 0.24522867463584E-02
    83 0.43248489537800E-02
    84 0.18820884230308E-03
    85 0.29798965420857E-03
    86 0.18196345942361E-03
    87 0.21694954203350E-03
    88 -.14750239244535E-03
    89 -.69447149588149E-04
    90 0.14495558913081E-04
    91 -.88638800408807E-04
    92 0.57631110271505E-04
    93 -.12726709985351E-02
    94 0.87841253587307E-03
    95 0.39425846266207E-03
    96 -.95276815559516E-04
    97 0.52161302699261E-03
    98 -.34574845424086E-03
    99 0.53092652318974E-04
   100 -.49107577471999E-04
   101 -.43391165885000E-04
   102 -.40421900130513E-05
   103 0.58931945350869E-04
   104 0.85915311975051E-04
   105 -.67189077801541E-04
   106 0.69527835117678E-05
   107 -.27699954049952E-04
   108 -.14500505364446E-04
   109 0.27938586635625E-04
   110 -.14396517931154E-03
   111 -.17405519562054E-02
   112 0.75401068128052E-02
   113 -.98309128815980E-02
   114 0.57299550972867E-04
   115 -.12091506359896E-03
   116 -.18454973827519E-03
   117 -.40738085623552E-02
   118 0.23965117507706E-02
   119 0.48262484226156E-02
   120 -.84430807297796E-03
   121 -.14498923880204E-02
   122 -.59562864988516E-03
   123 0.13524690195371E-03
   124 -.13808428878417E-03
   125 0.28373868304639E-05
   126 -.86710453431106E-04
   127 -.26914847104321E-03
   128 0.63176120981162E-04
   129 0.19361075251410E-03
   130 -.80046675212034E-03
   131 0.60685599960624E-03
   132 -.56401511145241E-03
   133 -.15148246099382E-02
   134 0.10178300219943E-02
   135 0.20085596290219E-04
   136 -.68987893484727E-04
   137 -.53381523907874E-04
   138 0.77704208434874E-04
   139 0.38565811796756E-04
   140 0.13270702603455E-03
   141 -.10465186363900E-03
   142 0.53991159877063E-04
   143 -.61088196314225E-04
   144 -.10489162174436E-03
   145 0.66320216005314E-05
   146 -.33343908350666E-04
   147 0.37652768688834E-03
   148 -.11931241472310E-03
   149 0.32926098973145E-02
   150 -.14626136648041E-03
   151 -.26067722585312E-04
   152 0.66783788671194E-04
   153 0.22984002258362E-03
   154 0.25298463393187E-03
   155 -.29826357679061E-03
   156 -.94383268108080E-03
   157 -.96391029561276E-03
   158 -.38524376582755E-03
   159 0.37009393208486E-04
   160 -.36778212232524E-04
   161 -.23118097596161E-06
   162 -.34247801469252E-04
   163 -.46615464792531E-04
   164 0.26350750700220E-05
   165 -.55360811586541E-03
   166 0.53008139657529E-03
   167 0.23526719290112E-04
   168 0.24491051235500E-03
   169 0.48567093924162E-03
   170 -.90702311635366E-04
   171 0.48079929807607E-04
   172 0.61161752473785E-06
   173 0.20061838465689E-04
   174 -.32617229874354E-04
   175 0.37305218798674E-05
   176 -.28250591682220E-04
   177 -.31888764967583E-04
   178 -.45510928967938E-05
   179 0.13348109444803E-05
   180 -.22212505893297E-04
   181 0.28605518450958E-05
   182 -.16531222571541E-04
   183 0.16328929617482E-03
   184 -.10398456172405E-02
   185 0.15772268328981E-02
   186 0.10249449353857E-04
   187 -.33829848835926E-04
   188 0.73981793768613E-05
   189 -.16208083225724E-04
   190 0.59302875685615E-03
   191 -.20874076308008E-03
   192 -.56227087392326E-03
   193 -.67997066439481E-03
   194 -.63004867195938E-03
   195 0.13491658577294E-04
   196 -.65729537517358E-05
   197 -.69187048255583E-05
   198 -.16391345261422E-04
   199 0.78489111932950E-06
   200 -.10151486484817E-04
   201 -.21799150363341E-04
   202 -.10273048497064E-03
   203 0.12452963533398E-03
   204 0.88006596226034E-04
   205 -.35010899717137E-04
   206 0.13363972731777E-04
   207 0.29071103308177E-05
   208 0.19850735208443E-05
   209 -.92480254645770E-05
   210 -.15800484702845E-05
   211 -.82254753687380E-05
   212 0.48784555684666E-05
   213 -.23202493203957E-05
   214 0.55622197689723E-05
   215 0.75290725893994E-05
   216 0.39257757501079E-05
   217 0.25869848397625E-05
   218 -.14867143185087E-04
   219 0.11255593653518E-03
   220 -.65239180031855E-03
   221 0.80343943599796E-03
   222 -.35061839971430E-04
   223 -.39032481970685E-04
   224 -.10949588209777E-04
   225 0.34828847079808E-03
   226 0.55427108398005E-03
   227 0.59130974254034E-04
   228 0.17058840749333E-03
   229 -.12828864862738E-03
   230 -.17693872975859E-03
   231 0.20742104630586E-06
   232 -.71099469797057E-07
   233 -.13632157650881E-06
   234 0.67261112909575E-05
   235 -.49398867041333E-05
   236 0.84586682162650E-06
   237 0.12839205173338E-03
   238 -.11237507562049E-03
   239 -.16016976112892E-04
   240 -.39582913743167E-04
   241 0.26764481568881E-04
   242 -.29420321948642E-04
   243 0.53305740855212E-05
   244 -.80751454126900E-06
   245 -.34102791140671E-05
   246 -.14018446881424E-05
   247 -.50121349498233E-05
   248 0.28513864621450E-05
   249 -.57498709204521E-05
   250 0.60955293940816E-05
   251 0.17239830906361E-05
   252 0.25301443792351E-05
   253 0.13940352480285E-03
   254 0.57365826243746E-03
   255 -.61318145609476E-03
   256 0.22878799997747E-04
   257 0.66574220258736E-04
   258 0.71977886695307E-04
   259 -.10526960064624E-04
   260 -.43971729415639E-03
   261 0.27502246690074E-03
   262 0.15536070978318E-03
   263 0.24658073370771E-05
   264 0.54121523173736E-04
   265 0.37626177461213E-04
   266 0.93870616287750E-03
   267 0.10720476087136E-02
   268 -.34413194658188E-04
   269 0.96152147310888E-04
   270 0.92872650854106E-04
   271 0.57756632383094E-04
   272 0.11393748389884E-02
   273 0.99882608842603E-03
   274 -.20207623498218E-04
   275 0.84050965364624E-04
   276 0.12569676902357E-03
   277 0.11322360234386E-04
   278 0.11439087399015E-02
   279 0.15339024167656E-02
   280 0.63334501326811E-04
   281 0.10867524288099E-03
   282 0.70847529489897E-04
   283 0.52362940896307E-04
   284 0.10883655279329E-02
   285 0.78607835601197E-03
   286 0.78647299926708E-04
   287 0.74580675604024E-04
   288 0.86648100538565E-04
   289 0.33446736751567E-04
   290 -.12529903415492E-03
   291 0.11648514038791E-03
   292 -.14911226050809E-03
   293 0.40446599307389E-04
   294 0.64637996099079E-04
   295 0.11989616943698E-03
   296 0.55787705986463E-03
   297 -.49353607000265E-03
   298 0.17925096550866E-04
   299 0.15172906828887E-03
   300 0.13890233218409E-04
   301 0.10225309647306E-04
   302 -.77507121714029E-03
   303 -.96914630824386E-04
   304 0.25806070613025E-04
   305 0.93529784330176E-04
   306 -.13240783152632E-03
   307 0.15300433888668E-07
   308 0.52653876355796E-04
   309 0.37592830771618E-03
   310 0.17956340759760E-04
   311 0.38079055178415E-05
   312 0.13175982860115E-04
   313 0.87628665486451E-05
   314 -.48627396666813E-03
   315 0.19895425398621E-04
   316 0.11010799558230E-03
   317 0.96560674660488E-04
   318 0.54127577054778E-04
   319 0.20085245481246E-04
   320 -.26703189788589E-03
   321 0.61811473918407E-04
   322 0.17172156075668E-04
   323 0.13998159419209E-04
   324 -.38713066766292E-04
 Sym=     2a   
 Ene= -.14292722797228E+02
 Spin= Alpha
 Occup= 2.000000
     1 0.61443283630035E-06
     2 -.34102123331021E-05
     3 0.47962526512112E-05
     4 0.56651684528380E-04
     5 0.18840138334584E-02
     6 -.62023469118938E-05
     7 0.14157208499597E-04
     8 -.48917587281957E-05
     9 0.82796347442619E-04
    10 -.22034769847204E-03
    11 -.12528800788444E-03
    12 0.15999421641388E-03
    13 0.31511472159064E-04
    14 -.38522862600195E-03
    15 -.16249782121284E-05
    16 -.34842050079765E-05
    17 0.51091832201050E-05
    18 0.20958914189575E-05
    19 -.13183590922486E-05
    20 -.28442331850714E-05
    21 0.71535494638041E-04
    22 -.31751744707479E-04
    23 -.39783749930562E-04
    24 -.44689318768596E-04
    25 -.16109468787830E-04
    26 0.50375352998766E-04
    27 -.61092984046070E-06
    28 -.26760473580604E-06
    29 0.17431548089021E-05
    30 0.23752337338139E-05
    31 -.26619992066525E-05
    32 -.18425359670063E-05
    33 -.15555853421620E-05
    34 0.30210286348704E-05
    35 -.49615162180009E-06
    36 0.29307074951285E-05
    37 0.21506922996877E-06
    38 -.10480874137820E-05
    39 -.46324152441124E-04
    40 0.33739600501253E-03
    41 0.33972382628471E-03
    42 -.27000774130774E-04
    43 -.84322486729389E-07
    44 -.20652709338060E-04
    45 0.45149504040021E-03
    46 -.12061785506010E-03
    47 0.11960042666330E-03
    48 0.10260917502032E-02
    49 -.26599466418833E-04
    50 -.65082735346555E-03
    51 0.49434455642873E-05
    52 -.13662103726511E-04
    53 0.87186581622234E-05
    54 0.56113587123252E-05
    55 -.78450839007392E-05
    56 0.95900908240785E-06
    57 0.39487271030768E-04
    58 0.13366849019836E-03
    59 -.17315576122913E-03
    60 0.48356118427535E-04
    61 0.10831327984115E-03
    62 0.26217609260475E-04
    63 0.48530420160473E-06
    64 -.66687266149459E-05
    65 -.76238754903122E-06
    66 -.45993536456194E-05
    67 0.10800910899394E-04
    68 0.43405640877198E-05
    69 0.39482497348867E-05
    70 -.18538752787652E-05
    71 -.33177138568198E-05
    72 0.23204013896168E-05
    73 0.15863217082822E-05
    74 -.17604906008388E-04
    75 0.20177455432777E-03
    76 -.69976684628585E-03
    77 -.58015692276893E-04
    78 0.28711494523602E-04
    79 -.35555039178578E-04
    80 -.71838939169228E-05
    81 -.19732617115467E-03
    82 0.22795762006969E-03
    83 0.13810181813245E-03
    84 0.12006860588200E-02
    85 0.63241779134016E-04
    86 0.21490270336209E-03
    87 0.46969505677107E-05
    88 -.15306122902519E-05
    89 -.31663382774588E-05
    90 0.31711989260018E-05
    91 0.22289858188387E-05
    92 -.48995970164719E-06
    93 -.47785592589204E-04
    94 0.32046119969807E-04
    95 0.15739472619397E-04
    96 0.78368864130328E-05
    97 -.21274708636587E-05
    98 -.14659734633626E-04
    99 0.25160868438036E-05
   100 -.26220740565376E-05
   101 0.62630236833417E-07
   102 -.25866070250820E-05
   103 0.34529777358401E-05
   104 0.28704687299617E-05
   105 -.78907770694070E-06
   106 0.64903763633929E-07
   107 -.29544960101656E-05
   108 0.44072470208602E-06
   109 0.69074209362113E-06
   110 -.35727113563648E-05
   111 -.32177869513037E-04
   112 0.12183337543990E-02
   113 0.33846362090774E-02
   114 0.53738354481220E-04
   115 0.70117255225324E-04
   116 -.43999489263147E-04
   117 0.22690450477212E-03
   118 0.11167085932544E-03
   119 0.23818000276945E-03
   120 0.22724888967568E-02
   121 0.57573073635983E-03
   122 0.14043185165240E-03
   123 -.25105327486504E-04
   124 0.25782477526335E-04
   125 -.67715003983015E-06
   126 -.17472550867634E-05
   127 0.49367485923109E-05
   128 -.27281964063522E-05
   129 0.37167451319652E-03
   130 -.69103191804808E-03
   131 0.31935740485157E-03
   132 -.20306725560998E-03
   133 0.42874679866657E-04
   134 0.22805274251793E-04
   135 0.44035251350887E-04
   136 -.75979513112159E-05
   137 -.34617788409357E-05
   138 -.58903668275349E-04
   139 -.12534125884839E-04
   140 0.22081329325188E-04
   141 -.17582098077500E-06
   142 0.22727847257806E-04
   143 -.17436865638346E-04
   144 0.59333178842702E-05
   145 0.88535237406729E-05
   146 -.46797297363400E-04
   147 -.17463585515801E-02
   148 0.87135377745833E-02
   149 -.16901344923534E-01
   150 0.61259514721332E-04
   151 -.11296209807086E-03
   152 -.15251624027850E-05
   153 -.11118321746111E-03
   154 0.74262850036127E-02
   155 -.67533091489074E-03
   156 0.15780895176323E-02
   157 -.17533257387802E-02
   158 0.13432957567861E-03
   159 -.10054126068749E-03
   160 0.18668359472109E-03
   161 -.86142334033597E-04
   162 0.61634700357873E-04
   163 -.34121792564723E-04
   164 -.40708216114921E-04
   165 -.97185156110304E-03
   166 0.17907294048250E-02
   167 -.81887784372191E-03
   168 -.25242625804589E-03
   169 0.25248962067959E-03
   170 -.65107813220881E-03
   171 -.17348749791831E-04
   172 0.51433660708448E-04
   173 0.26647331607261E-04
   174 0.23834275846525E-04
   175 -.23867540339788E-04
   176 0.22436677648150E-05
   177 -.55848553102363E-06
   178 -.45137956665662E-04
   179 -.37994814700504E-04
   180 -.21517825519059E-05
   181 0.44831541321369E+00
   182 0.62686620631742E+00
   183 0.37157742013924E-01
   184 -.31242885630702E-01
   185 0.19528873775766E-01
   186 0.12987685492145E-02
   187 -.14683132986547E-02
   188 -.49679713612198E-03
   189 -.22743195093681E-03
   190 0.66511685323292E-02
   191 -.46873226998972E-03
   192 0.10545578396231E-02
   193 -.18786926713067E-02
   194 -.39825804275468E-03
   195 -.81196923762867E-04
   196 0.80167417156573E-04
   197 0.10295066062932E-05
   198 0.63528702968735E-04
   199 0.48718128790001E-04
   200 -.36299233756525E-04
   201 0.66517765202861E-03
   202 -.13464233340364E-02
   203 0.68124568200779E-03
   204 -.43640661379763E-04
   205 0.55717994911046E-04
   206 0.27643734926578E-03
   207 -.80631138924666E-05
   208 0.61992609216478E-04
   209 -.17440602754470E-04
   210 0.91776913411966E-05
   211 -.46088961457358E-04
   212 0.39996173678424E-04
   213 0.16401111231303E-05
   214 -.37082851529017E-04
   215 -.16597149681886E-04
   216 0.17072635705202E-04
   217 0.81473031488880E-05
   218 0.90712110083629E-05
   219 0.33834173517185E-04
   220 -.66432250956093E-04
   221 -.32257470578486E-03
   222 0.22014042265598E-04
   223 0.15392857659948E-04
   224 0.86027454611734E-05
   225 -.18193836739484E-03
   226 -.13402669154778E-03
   227 -.65823891446713E-04
   228 0.14556137671465E-03
   229 0.20488935432931E-03
   230 0.11637558306053E-03
   231 -.14658100430583E-05
   232 0.52156502283644E-06
   233 0.94424502022182E-06
   234 0.22183971449609E-05
   235 0.14550525101545E-05
   236 0.47093024210148E-06
   237 -.43218854859901E-04
   238 0.25138500033815E-04
   239 0.18080354826085E-04
   240 -.34861445321853E-04
   241 -.12930094535714E-04
   242 -.28160284250528E-06
   243 -.36601365702560E-05
   244 0.81060540184572E-06
   245 0.98589649536918E-06
   246 0.23347304611952E-05
   247 -.22981877041400E-05
   248 -.80711769359286E-06
   249 0.25758580456201E-05
   250 0.12106464352667E-05
   251 -.51560125586172E-06
   252 -.16739142668305E-06
   253 0.56073955641387E-05
   254 -.17522981561385E-03
   255 -.13397222057025E-03
   256 -.17935147025535E-04
   257 -.20116981911765E-04
   258 -.36390679631905E-05
   259 0.77604962037531E-05
   260 0.30289559270583E-04
   261 -.14019799400185E-03
   262 -.20478152158186E-04
   263 0.73618187068254E-05
   264 -.10715719180171E-05
   265 0.29107585842868E-04
   266 0.16759647615318E-03
   267 -.50628938923346E-03
   268 0.27088395301937E-04
   269 -.38853607568041E-04
   270 0.29637406900653E-04
   271 -.19447094834055E-04
   272 -.35792489337208E-03
   273 0.23001623378722E-03
   274 -.81426281903767E-05
   275 -.57312785457658E-04
   276 0.67244401535218E-05
   277 0.29841769990671E-04
   278 -.60368015731380E-03
   279 0.63588738027888E-03
   280 -.15991601204720E-04
   281 0.12224641440975E-03
   282 -.10834752869223E-03
   283 0.79850213074169E-04
   284 0.71967446163688E-03
   285 -.56972098201337E-03
   286 -.10962179519490E-03
   287 0.69164861987943E-04
   288 0.50222371761038E-04
   289 -.27648810644321E-04
   290 0.43869364744344E-03
   291 0.28449837745786E-02
   292 -.15254771704476E-03
   293 -.28439863287959E-03
   294 0.85700744091155E-04
   295 0.98224091302056E-04