[Molden Format]
[Title]
                                                                                
[Atoms] AU
 c     1    6 0.13528462778233E+01 -.11266490868928E+01 -.36008193307585E+00
 c     2    6 -.14889242696695E+01 -.98277577217517E+00 0.21794186398739E+00
 n     3    7 -.28082835313705E+01 0.12916980702481E+01 -.62526504856156E+00
 n     4    7 0.29451839594173E+01 0.82767304015441E+00 0.76655377765765E+00
 h     5    1 0.20658207681640E+01 -.29669552295408E+01 0.26208286339915E+00
 h     6    1 0.16300799091398E+01 -.10571756711409E+01 -.24103732569712E+01
 h     7    1 -.24251301551276E+01 -.26171599222003E+01 -.63947655309910E+00
 h     8    1 -.17749068923935E+01 -.11535304649749E+01 0.22611947049114E+01
 h     9    1 -.21038603523520E+01 0.28604880189075E+01 0.21728183273110E+00
 h    10    1 -.26420551767890E+01 0.15279096230922E+01 -.25201344758244E+01
 h    11    1 0.24483806251881E+01 0.25722030199997E+01 0.15254586431851E+00
 h    12    1 0.28008488379718E+01 0.82427248479664E+00 0.26777303605259E+01
[GTO]
    1 0
 s    6 1.00
 0.13575349682000E+05 0.60645503603591E-03
 0.20352333680000E+04 0.46979088884982E-02
 0.46322562359000E+03 0.24332477647552E-01
 0.13120019598000E+03 0.97399968307759E-01
 0.42853015891000E+02 0.30195584253780E+00
 0.15584185766000E+02 0.66233609137875E+00
 s    2 1.00
 0.62067138508000E+01 0.65595308539952E+00
 0.25764896527000E+01 0.37585633285142E+00
 s    1 1.00
 0.57696339419000E+00 0.10000000000000E+01
 s    1 1.00
 0.22972831358000E+00 0.10000000000000E+01
 s    1 1.00
 0.95164440028000E-01 0.10000000000000E+01
 p    4 1.00
 0.34697232244000E+02 0.11327220003114E-01
 0.79582622826000E+01 0.76169659202087E-01
 0.23780826883000E+01 0.30192252202676E+00
 0.81433208183000E+00 0.72785027349547E+00
 p    1 1.00
 0.28887547253000E+00 0.10000000000000E+01
 p    1 1.00
 0.10056823671000E+00 0.10000000000000E+01
 d    1 1.00
 0.10970000000000E+01 0.10000000000000E+01
 d    1 1.00
 0.31800000000000E+00 0.10000000000000E+01
 f    1 1.00
 0.76100000000000E+00 0.10000000000000E+01
 
    2 0
 s    6 1.00
 0.13575349682000E+05 0.60645503603591E-03
 0.20352333680000E+04 0.46979088884982E-02
 0.46322562359000E+03 0.24332477647552E-01
 0.13120019598000E+03 0.97399968307759E-01
 0.42853015891000E+02 0.30195584253780E+00
 0.15584185766000E+02 0.66233609137875E+00
 s    2 1.00
 0.62067138508000E+01 0.65595308539952E+00
 0.25764896527000E+01 0.37585633285142E+00
 s    1 1.00
 0.57696339419000E+00 0.10000000000000E+01
 s    1 1.00
 0.22972831358000E+00 0.10000000000000E+01
 s    1 1.00
 0.95164440028000E-01 0.10000000000000E+01
 p    4 1.00
 0.34697232244000E+02 0.11327220003114E-01
 0.79582622826000E+01 0.76169659202087E-01
 0.23780826883000E+01 0.30192252202676E+00
 0.81433208183000E+00 0.72785027349547E+00
 p    1 1.00
 0.28887547253000E+00 0.10000000000000E+01
 p    1 1.00
 0.10056823671000E+00 0.10000000000000E+01
 d    1 1.00
 0.10970000000000E+01 0.10000000000000E+01
 d    1 1.00
 0.31800000000000E+00 0.10000000000000E+01
 f    1 1.00
 0.76100000000000E+00 0.10000000000000E+01
 
    3 0
 s    6 1.00
 0.19730800647000E+05 0.58626402628763E-03
 0.29578958745000E+04 0.45428820586397E-02
 0.67322133595000E+03 0.23558413450084E-01
 0.19068249494000E+03 0.94709193292923E-01
 0.62295441898000E+02 0.29719784913376E+00
 0.22654161182000E+02 0.66916246895232E+00
 s    2 1.00
 0.89791477428000E+01 0.64596683630063E+00
 0.36863002370000E+01 0.38700574393705E+00
 s    1 1.00
 0.84660076805000E+00 0.10000000000000E+01
 s    1 1.00
 0.33647133771000E+00 0.10000000000000E+01
 s    1 1.00
 0.13647653675000E+00 0.10000000000000E+01
 p    4 1.00
 0.49200380510000E+02 0.11448825101764E-01
 0.11346790537000E+02 0.78422337970864E-01
 0.34273972411000E+01 0.30818094738830E+00
 0.11785525134000E+01 0.72027196368413E+00
 p    1 1.00
 0.41642204972000E+00 0.10000000000000E+01
 p    1 1.00
 0.14260826011000E+00 0.10000000000000E+01
 d    1 1.00
 0.16540000000000E+01 0.10000000000000E+01
 d    1 1.00
 0.46900000000000E+00 0.10000000000000E+01
 f    1 1.00
 0.10930000000000E+01 0.10000000000000E+01
 
    4 0
 s    6 1.00
 0.19730800647000E+05 0.58626402628763E-03
 0.29578958745000E+04 0.45428820586397E-02
 0.67322133595000E+03 0.23558413450084E-01
 0.19068249494000E+03 0.94709193292923E-01
 0.62295441898000E+02 0.29719784913376E+00
 0.22654161182000E+02 0.66916246895232E+00
 s    2 1.00
 0.89791477428000E+01 0.64596683630063E+00
 0.36863002370000E+01 0.38700574393705E+00
 s    1 1.00
 0.84660076805000E+00 0.10000000000000E+01
 s    1 1.00
 0.33647133771000E+00 0.10000000000000E+01
 s    1 1.00
 0.13647653675000E+00 0.10000000000000E+01
 p    4 1.00
 0.49200380510000E+02 0.11448825101764E-01
 0.11346790537000E+02 0.78422337970864E-01
 0.34273972411000E+01 0.30818094738830E+00
 0.11785525134000E+01 0.72027196368413E+00
 p    1 1.00
 0.41642204972000E+00 0.10000000000000E+01
 p    1 1.00
 0.14260826011000E+00 0.10000000000000E+01
 d    1 1.00
 0.16540000000000E+01 0.10000000000000E+01
 d    1 1.00
 0.46900000000000E+00 0.10000000000000E+01
 f    1 1.00
 0.10930000000000E+01 0.10000000000000E+01
 
    5 0
 s    3 1.00
 0.34061341000000E+02 0.25439307208879E-01
 0.51235746000000E+01 0.19008594890375E+00
 0.11646626000000E+01 0.85244113011042E+00
 s    1 1.00
 0.32723041000000E+00 0.10000000000000E+01
 s    1 1.00
 0.10307241000000E+00 0.10000000000000E+01
 p    1 1.00
 0.80000000000000E+00 0.10000000000000E+01
 
    6 0
 s    3 1.00
 0.34061341000000E+02 0.25439307208879E-01
 0.51235746000000E+01 0.19008594890375E+00
 0.11646626000000E+01 0.85244113011042E+00
 s    1 1.00
 0.32723041000000E+00 0.10000000000000E+01
 s    1 1.00
 0.10307241000000E+00 0.10000000000000E+01
 p    1 1.00
 0.80000000000000E+00 0.10000000000000E+01
 
    7 0
 s    3 1.00
 0.34061341000000E+02 0.25439307208879E-01
 0.51235746000000E+01 0.19008594890375E+00
 0.11646626000000E+01 0.85244113011042E+00
 s    1 1.00
 0.32723041000000E+00 0.10000000000000E+01
 s    1 1.00
 0.10307241000000E+00 0.10000000000000E+01
 p    1 1.00
 0.80000000000000E+00 0.10000000000000E+01
 
    8 0
 s    3 1.00
 0.34061341000000E+02 0.25439307208879E-01
 0.51235746000000E+01 0.19008594890375E+00
 0.11646626000000E+01 0.85244113011042E+00
 s    1 1.00
 0.32723041000000E+00 0.10000000000000E+01
 s    1 1.00
 0.10307241000000E+00 0.10000000000000E+01
 p    1 1.00
 0.80000000000000E+00 0.10000000000000E+01
 
    9 0
 s    3 1.00
 0.34061341000000E+02 0.25439307208879E-01
 0.51235746000000E+01 0.19008594890375E+00
 0.11646626000000E+01 0.85244113011042E+00
 s    1 1.00
 0.32723041000000E+00 0.10000000000000E+01
 s    1 1.00
 0.10307241000000E+00 0.10000000000000E+01
 p    1 1.00
 0.80000000000000E+00 0.10000000000000E+01
 
   10 0
 s    3 1.00
 0.34061341000000E+02 0.25439307208879E-01
 0.51235746000000E+01 0.19008594890375E+00
 0.11646626000000E+01 0.85244113011042E+00
 s    1 1.00
 0.32723041000000E+00 0.10000000000000E+01
 s    1 1.00
 0.10307241000000E+00 0.10000000000000E+01
 p    1 1.00
 0.80000000000000E+00 0.10000000000000E+01
 
   11 0
 s    3 1.00
 0.34061341000000E+02 0.25439307208879E-01
 0.51235746000000E+01 0.19008594890375E+00
 0.11646626000000E+01 0.85244113011042E+00
 s    1 1.00
 0.32723041000000E+00 0.10000000000000E+01
 s    1 1.00
 0.10307241000000E+00 0.10000000000000E+01
 p    1 1.00
 0.80000000000000E+00 0.10000000000000E+01
 
   12 0
 s    3 1.00
 0.34061341000000E+02 0.25439307208879E-01
 0.51235746000000E+01 0.19008594890375E+00
 0.11646626000000E+01 0.85244113011042E+00
 s    1 1.00
 0.32723041000000E+00 0.10000000000000E+01
 s    1 1.00
 0.10307241000000E+00 0.10000000000000E+01
 p    1 1.00
 0.80000000000000E+00 0.10000000000000E+01
 
[MO]
 Sym=     1a   
 Ene= -.14294246516464E+02
 Spin= Alpha
 Occup= 2.000000
     1 0.38618002215345E-05
     2 -.20452829642511E-04
     3 0.13094669800483E-03
     4 0.10318620526859E-02
     5 -.25642448538848E-02
     6 -.12969396758012E-03
     7 0.72250469696962E-04
     8 -.17181750991745E-04
     9 0.31033264156673E-03
    10 0.33424579060097E-03
    11 -.77528973673615E-04
    12 0.84448072368507E-04
    13 -.81056989351756E-03
    14 0.27304473774017E-03
    15 0.12253608551535E-05
    16 0.33352138770623E-04
    17 -.34577499625776E-04
    18 -.51701051344386E-04
    19 0.59031073600226E-05
    20 -.22607199957492E-04
    21 -.60568169228217E-04
    22 -.35179538414443E-03
    23 0.41236355337264E-03
    24 0.70568015585772E-03
    25 -.62697638410501E-04
    26 0.38004445883579E-03
    27 -.83497724775959E-06
    28 0.30153806779470E-04
    29 -.10823687527884E-04
    30 0.17144315149397E-04
    31 -.55328396049627E-04
    32 0.23894412597591E-04
    33 -.16024075618003E-04
    34 0.14872819006054E-04
    35 -.93729119498516E-05
    36 0.11167294670059E-04
    37 0.11095055202266E-04
    38 -.58411305537121E-04
    39 -.18174750066222E-02
    40 0.90291316703895E-02
    41 -.10476633108090E-01
    42 -.95811568849451E-05
    43 -.78323565302339E-04
    44 0.24337564723093E-04
    45 -.29136898329640E-02
    46 0.59377656179031E-02
    47 -.21541343013382E-02
    48 0.14455324974531E-02
    49 -.17024116537585E-02
    50 0.87391927296571E-04
    51 -.24340826192338E-04
    52 0.87912435572712E-04
    53 -.63571609380374E-04
    54 -.15194714586756E-03
    55 0.60559256849426E-04
    56 -.57476546094340E-04
    57 -.33869549853334E-03
    58 0.10110075842974E-02
    59 -.67231208576403E-03
    60 -.97595315982524E-03
    61 0.31857015284269E-03
    62 -.10321457128387E-02
    63 0.33478615520253E-04
    64 0.11022558922624E-04
    65 0.46220279739866E-04
    66 -.45730973556464E-04
    67 0.24825073039009E-05
    68 -.10303688275562E-04
    69 0.81469749894453E-06
    70 -.17270821926091E-04
    71 -.51707324186876E-04
    72 0.13684316776685E-04
    73 0.44831300562253E+00
    74 0.62685085151395E+00
    75 0.37216163952826E-01
    76 -.31285109232910E-01
    77 0.19473989616195E-01
    78 0.19756576950118E-02
    79 -.51910207047884E-03
    80 -.13539432426262E-03
    81 -.39904685669268E-02
    82 0.50001287116549E-02
    83 -.16652051118086E-02
    84 0.23786579928749E-02
    85 -.27415281488115E-03
    86 -.11380307341639E-03
    87 -.97813968784957E-04
    88 0.82727279091263E-04
    89 0.15086689693694E-04
    90 -.52930546337184E-04
    91 0.48912521765871E-04
    92 -.24759430357476E-04
    93 0.56919725613726E-04
    94 -.63039172903611E-03
    95 0.57347200342239E-03
    96 0.99086433562282E-03
    97 -.31100073844131E-03
    98 0.56105319208813E-03
    99 0.20222512311263E-04
   100 0.61399468080373E-05
   101 -.40512940785973E-05
   102 -.51328795166794E-04
   103 0.11332861755648E-04
   104 0.79803149976545E-05
   105 0.24197447844508E-04
   106 -.19570464820251E-04
   107 -.25449336237029E-05
   108 0.49616051419192E-04
   109 0.19598677932880E-02
   110 0.27293508543767E-02
   111 0.27635558020505E-03
   112 -.89912050718359E-03
   113 0.13157605631752E-02
   114 -.25858537159814E-04
   115 -.73843089624712E-04
   116 0.14621771184306E-04
   117 0.22318246025648E-03
   118 0.78372642843735E-03
   119 0.80607247993043E-05
   120 -.52545400735903E-03
   121 -.46920360623811E-03
   122 -.26964088599023E-04
   123 0.12100337638699E-05
   124 0.60260288445884E-05
   125 -.72360626084582E-05
   126 -.26923334011060E-05
   127 -.36936885838291E-05
   128 -.31664536844688E-06
   129 -.27271757072819E-05
   130 -.92302069269474E-05
   131 0.11957382634229E-04
   132 -.12101215598671E-03
   133 0.32721620016906E-04
   134 -.78859958921637E-04
   135 -.70082060702611E-06
   136 -.99856353983622E-06
   137 0.64278729742144E-05
   138 0.25206901154796E-05
   139 0.23717373653527E-05
   140 -.27043005087290E-05
   141 -.15804406050738E-05
   142 -.10320237923968E-05
   143 -.59195960439173E-05
   144 0.28375885147915E-05
   145 0.11578093916442E-03
   146 0.10876143120482E-02
   147 -.49890837396984E-03
   148 0.12014447506462E-04
   149 0.13753725450427E-03
   150 -.52366610384180E-04
   151 -.56016241431024E-04
   152 -.47084311967534E-03
   153 0.14135769520645E-02
   154 -.65911268231460E-04
   155 0.13406449471892E-03
   156 -.13227096775246E-03
   157 0.30221011725366E-04
   158 0.43489710687845E-03
   159 0.16727238549231E-02
   160 0.20160795407623E-03
   161 -.21833845924858E-03
   162 0.32589503429171E-04
   163 -.37682018070857E-06
   164 0.35161484130485E-03
   165 0.22144066942900E-02
   166 0.21253356817270E-03
   167 -.17903553373816E-03
   168 0.11927123483354E-03
   169 0.19191875221054E-03
   170 -.72241958383020E-03
   171 -.25963740632671E-02
   172 0.19525662565383E-03
   173 0.47886697470180E-03
   174 0.30001214772932E-03
   175 0.18999795391016E-03
   176 -.74428932192147E-03
   177 -.22932166518533E-02
   178 0.30819399620385E-04
   179 0.40578730041951E-04
   180 -.60130318785613E-03
   181 -.13339523204637E-04
   182 -.39828658147417E-03
   183 0.60649461768440E-03
   184 -.88854154434356E-05
   185 0.14835941869760E-03
   186 -.53157551831115E-04
   187 0.18830907953977E-04
   188 -.99204357232288E-04
   189 0.19312213238541E-03
   190 -.68449752154297E-04
   191 0.12700161716388E-04
   192 -.29577772899253E-04
 Sym=     2a   
 Ene= -.14294157349252E+02
 Spin= Alpha
 Occup= 2.000000
     1 0.11061492922514E-04
     2 -.58239727924801E-04
     3 -.18156352454566E-02
     4 0.90103970275052E-02
     5 -.10436009414839E-01
     6 0.11448857647015E-05
     7 -.75122174943353E-04
     8 -.34082969942043E-04
     9 0.36236073727558E-02
    10 0.51650125254894E-02
    11 0.28986804338906E-02
    12 -.16530190505305E-02
    13 -.14750280719378E-02
    14 -.29820558827949E-03
    15 0.99216522048415E-05
    16 0.38596990998235E-04
    17 -.48518643203076E-04
    18 0.15266682929296E-03
    19 0.89119869271290E-04
    20 0.66576782750557E-04
    21 -.10743411582675E-03
    22 0.52595799048383E-03
    23 -.41852387465709E-03
    24 0.10556225512610E-02
    25 0.59956626310369E-03
    26 0.11704748796863E-02
    27 -.30475681580504E-04
    28 -.16851842565432E-04
    29 -.47782723284963E-04
    30 0.37716280824476E-04
    31 0.17828188130984E-04
    32 0.15894537867013E-04
    33 0.31711365803121E-05
    34 0.47809311824743E-05
    35 0.48212712582131E-04
    36 0.25621688106896E-04
    37 0.37316527677686E-05
    38 -.19750293631585E-04
    39 0.14489790381867E-03
    40 0.95672624841975E-03
    41 -.24891843643434E-02
    42 0.13795821877458E-03
    43 0.52261746147320E-04
    44 0.25455684462076E-04
    45 -.24048718246868E-03
    46 0.30920310990574E-03
    47 0.14141110842010E-03
    48 -.20386734737890E-03
    49 -.73694694044269E-03
    50 -.37704302398462E-03
    51 0.13406287145206E-04
    52 0.14645204850632E-04
    53 -.28051491995838E-04
    54 0.54091642091855E-04
    55 0.15923156337690E-04
    56 0.30401952065987E-04
    57 -.21584073474052E-03
    58 -.10405847532968E-03
    59 0.31989921007021E-03
    60 -.69021468084126E-03
    61 -.21481571671597E-03
    62 -.44502317544178E-03
    63 -.15132966251288E-04
    64 0.29878181174993E-04
    65 0.14484409916556E-04
    66 -.19430084560985E-06
    67 -.52839847419632E-04
    68 -.28479372889720E-04
    69 0.20497305589064E-04
    70 0.12754060928829E-04
    71 0.90464977772862E-05
    72 0.12157491847094E-04
    73 -.19573315611885E-02
    74 -.27478854943541E-02
    75 -.46212706113716E-04
    76 -.63574983633546E-03
    77 0.11431986604192E-02
    78 -.49563172441487E-06
    79 -.69156623610228E-04
    80 -.23407391918713E-04
    81 -.90485573589633E-04
    82 0.75243750661910E-03
    83 0.11445022828583E-03
    84 0.44170699286048E-03
    85 -.53240304766265E-03
    86 -.36740509407533E-04
    87 0.27342665613093E-05
    88 0.41766589012314E-05
    89 -.69109254625407E-05
    90 0.42201095627447E-05
    91 -.34979293046880E-05
    92 0.30364014012618E-05
    93 0.23265760627773E-04
    94 -.46493572519318E-04
    95 0.23227811891544E-04
    96 0.98888993983826E-04
    97 0.60089542455845E-04
    98 0.59458942095216E-04
    99 0.11482409312581E-05
   100 -.17407460209329E-05
   101 -.61671796553878E-05
   102 -.35137321754509E-05
   103 0.78519214790877E-06
   104 0.33557024025603E-05
   105 0.19732053093464E-05
   106 0.15502637127122E-05
   107 0.49184373607802E-05
   108 0.18914474520293E-05
   109 0.44831234541419E+00
   110 0.62685198612453E+00
   111 0.37211521808990E-01
   112 -.31269552424720E-01
   113 0.19466044819482E-01
   114 -.20246994438647E-02
   115 -.27592809606190E-03
   116 0.87466123099506E-04
   117 0.45765641459453E-02
   118 0.41669987888569E-02
   119 0.22801575660010E-02
   120 -.23925438165666E-02
   121 0.22062197987794E-04
   122 0.10203586000560E-03
   123 -.84247210225307E-04
   124 0.62764218578503E-04
   125 0.21482991646804E-04
   126 0.69444795222369E-04
   127 0.61574415686065E-04
   128 0.26270090407740E-04
   129 -.16547768380621E-03
   130 -.26476951198326E-03
   131 0.43024719578947E-03
   132 -.99146582684060E-03
   133 -.52394028592869E-03
   134 -.65285723490039E-03
   135 -.14721220745829E-04
   136 -.59966636581995E-05
   137 -.15205700153038E-05
   138 0.33225995372807E-04
   139 0.25931552306784E-04
   140 0.65005883006771E-05
   141 -.13475405193134E-04
   142 -.17886183760022E-04
   143 -.44605295494167E-05
   144 0.59099855206589E-04
   145 0.29272339792816E-04
   146 0.41885386891278E-03
   147 0.16734115803448E-02
   148 -.22676214310557E-03
   149 -.18619569645756E-03
   150 -.58748866685778E-04
   151 0.11779274995472E-06
   152 0.36013354734327E-03
   153 0.22003547616507E-02
   154 -.23284009490195E-03
   155 -.13455757759144E-03
   156 -.13824925587831E-03
   157 0.11535547662758E-03
   158 0.10838377766258E-02
   159 -.51388741598199E-03
   160 0.35760302736116E-05
   161 0.13156614711747E-03
   162 0.70493910151936E-04
   163 -.56665779372264E-04
   164 -.47046726434610E-03
   165 0.13906715721752E-02
   166 0.79494723689069E-04
   167 0.10714275671114E-03
   168 0.14664610857448E-03
   169 -.15207874203214E-04
   170 -.38190321336677E-03
   171 0.63045990051399E-03
   172 0.25221368459818E-04
   173 0.13022046892002E-03
   174 0.69056633914597E-04
   175 0.17310354216532E-04
   176 -.85000195616361E-04
   177 0.21556784735128E-03
   178 0.69568431300725E-04
   179 -.10885450138825E-05
   180 0.38217616424910E-04
   181 0.19336056813849E-03
   182 -.71507472004689E-03
   183 -.26058515292742E-02
   184 -.13118447692315E-03
   185 0.53255583913063E-03
   186 -.22935518733666E-03
   187 0.18961889559166E-03
   188 -.74727860589612E-03
   189 -.22920562641506E-02
   190 -.27400407166937E-04
   191 -.37106098751635E-04
   192 0.60335761509245E-03
 Sym=     3a   
 Ene= -.10188382294760E+02
 Spin= Alpha
 Occup= 2.000000
     1 0.24822358670830E+00
     2 0.32357553271839E+00
     3 0.19056388595540E-01
     4 -.54454522157500E-02
     5 0.84295572881941E-02
     6 -.31556190783103E-03
     7 0.14609453898621E-03
     8 0.15136686650030E-03
     9 0.29282083952031E-02
    10 0.11928549045839E-02
    11 0.29781717630441E-03
    12 0.29732014036204E-02
    13 -.85592861267156E-04
    14 -.17953496944864E-03
    15 -.71931229970170E-04
    16 0.59230386712290E-04
    17 0.12700843257880E-04
    18 0.77219053993196E-04
    19 0.74638715842560E-04
    20 0.23312840052639E-04
    21 -.11512970902318E-02
    22 0.71039026303436E-03
    23 0.44090682719748E-03
    24 0.50614400693779E-03
    25 0.57508863549370E-03
    26 0.28269948371613E-03
    27 0.57554104894940E-04
    28 -.59745277489265E-04
    29 -.18602088292096E-03
    30 0.22744809969671E-04
    31 0.27037623508361E-04
    32 -.18247461739407E-04
    33 -.99961744527214E-04
    34 0.53119077571989E-04
    35 0.26782066540689E-03
    36 0.71452013021589E-04
    37 0.39537296207462E+00
    38 0.51533524453068E+00
    39 0.30348463276071E-01
    40 -.11243624611715E-01
    41 0.22672314262562E-01
    42 0.22860847522859E-03
    43 0.29975454577717E-03
    44 -.18523748814674E-03
    45 -.34510770671429E-02
    46 0.16241180055252E-02
    47 -.38319052558962E-04
    48 -.59453400518625E-03
    49 0.43182387473835E-03
    50 0.19923186447314E-04
    51 -.81725479170076E-04
    52 0.10071535396795E-03
    53 -.18989874797879E-04
    54 -.98257285177480E-04
    55 0.68605688295702E-04
    56 -.42386521055092E-04
    57 -.11060716078989E-02
    58 0.77636418387248E-03
    59 0.32970742402643E-03
    60 -.33905331562556E-03
    61 0.47025868825701E-03
    62 -.26398883207919E-03
    63 0.98875365562175E-04
    64 0.47654531647962E-04
    65 0.30211397995302E-03
    66 -.17811959760991E-03
    67 0.24234376603589E-04
    68 -.57448167750467E-04
    69 0.45464374391616E-04
    70 -.88169639924044E-04
    71 -.34788026992631E-03
    72 -.87130597694656E-06
    73 -.16584530578446E-04
    74 -.10935377830281E-03
    75 0.14812196312840E-02
    76 -.28749962289773E-02
    77 -.50749700616605E-02
    78 0.31063102620393E-03
    79 -.55957848430894E-03
    80 0.20817034937273E-03
    81 -.18226695307278E-02
    82 0.35018135660824E-02
    83 -.13392639708886E-02
    84 -.63403327396939E-03
    85 0.25464019560827E-02
    86 -.11750107466449E-02
    87 -.17400843579103E-04
    88 0.44861876096965E-04
    89 -.27461032517862E-04
    90 -.47418161302825E-04
    91 0.19132869189988E-04
    92 -.38096268239090E-04
    93 0.72217891597585E-04
    94 -.78492547715738E-03
    95 0.71270758555979E-03
    96 0.11886450970903E-02
    97 -.38114354742552E-03
    98 0.72104510261339E-03
    99 0.85870403109203E-04
   100 0.27257655030872E-04
   101 0.50309383713964E-04
   102 -.17586874331114E-03
   103 0.32433389924839E-04
   104 0.64378993518214E-05
   105 0.60661508146648E-04
   106 -.69003371658600E-04
   107 -.73935020486148E-04
   108 0.13060882131486E-03
   109 -.93726246540663E-05
   110 -.75858401020397E-04
   111 0.10624823201936E-02
   112 -.22587008211896E-02
   113 -.41900353516535E-02
   114 -.29314626872236E-03
   115 -.33477848989223E-03
   116 -.18861682455989E-03
   117 0.18846542874098E-02
   118 0.22447741066610E-02
   119 0.13041153544596E-02
   120 0.90507303389276E-03
   121 0.15668302281125E-02
   122 0.96410011034135E-03
   123 -.22703580668180E-05
   124 0.14778733037127E-04
   125 -.12508374970309E-04
   126 0.38591884133539E-04
   127 0.24011477182233E-04
   128 0.24562454774839E-04
   129 -.20516601866972E-03
   130 -.19140037454811E-03
   131 0.39656639321783E-03
   132 -.86805654887956E-03
   133 -.46517740812852E-03
   134 -.52637501817977E-03
   135 -.38110792167737E-04
   136 -.28896821997012E-04
   137 -.43952154037921E-04
   138 0.76943067600248E-04
   139 0.63947158627547E-04
   140 0.27721524482235E-04
   141 -.25812074422192E-04
   142 -.25178003636129E-04
   143 0.31246478029565E-04
   144 0.10568473961013E-03
   145 -.28128898997991E-03
   146 -.18849001563073E-02
   147 -.29470100528158E-02
   148 0.65040745753979E-03
   149 -.10304668704330E-02
   150 0.28770951845660E-03
   151 -.31864201934694E-03
   152 -.19978770040085E-02
   153 -.27053809192001E-02
   154 0.40072044667819E-03
   155 0.39515308512738E-04
   156 -.12073693834453E-02
   157 -.43985232659525E-03
   158 -.25987055917742E-02
   159 -.43413972187616E-02
   160 -.97897534419401E-03
   161 -.14591501233072E-02
   162 -.71850954913464E-03
   163 -.45634323396691E-03
   164 -.27862791293379E-02
   165 -.45449043627243E-02
   166 -.40803643286172E-03
   167 -.15861151847555E-03
   168 0.18685520792222E-02
   169 -.13228169061856E-03
   170 -.10851112058784E-02
   171 -.83016811193510E-03
   172 -.76584239591073E-04
   173 0.35311584118176E-03
   174 0.67498630780304E-04
   175 -.13740320057613E-03
   176 -.11289028215905E-02
   177 -.88618908077008E-03
   178 -.14620551468186E-03
   179 0.17637492992326E-03
   180 -.30579394488595E-03
   181 -.83243510102591E-04
   182 -.61295763028758E-03
   183 -.42776576090353E-03
   184 0.96947165895556E-04
   185 0.24223117713070E-03
   186 -.34959728306977E-04
   187 -.90130198108384E-04
   188 -.67555572232537E-03
   189 -.51544261908139E-03
   190 0.14081653983215E-03
   191 0.65028682287608E-04
   192 0.24830717997151E-03
 Sym=     4a   
 Ene= -.10188161458585E+02
 Spin= Alpha
 Occup= 2.000000
     1 0.39540048291714E+00
     2 0.51529561358911E+00
     3 0.30346805441996E-01
     4 -.14581751080170E-01
     5 0.34733680798488E-01
     6 0.21313084141175E-03
     7 0.38099639423493E-03
     8 0.20488049604351E-03
     9 0.23105327711792E-02
    10 0.19519448826177E-03
    11 -.10487632508382E-03
    12 -.46894810771070E-02
    13 0.10006701556687E-02
    14 0.43097951311886E-03
    15 0.14883368260920E-04
    16 0.31775113532814E-04
    17 -.46658481793734E-04
    18 0.94755649794600E-04
    19 0.51065026716795E-04
    20 0.60272925699969E-04
    21 0.62139860306846E-04
    22 -.47043802846204E-04
    23 -.15096057460642E-04
    24 0.17758658625588E-03
    25 0.10504282763880E-03
    26 -.82079383982699E-05
    27 -.31283374050516E-03
    28 -.12074526989827E-03
    29 -.31696608831404E-03
    30 0.30155964904519E-03
    31 0.11755140392283E-03
    32 0.20540998863509E-03
    33 0.11815085660985E-03
    34 0.44445374949627E-04
    35 0.21984464338435E-03
    36 0.24313932683389E-04
    37 -.24826847004809E+00
    38 -.32351253324321E+00
    39 -.19052082939458E-01
    40 0.10772423187022E-01
    41 -.27633193933714E-01
    42 0.29023521259434E-03
    43 -.33402355049958E-03
    44 0.77722350076721E-04
    45 0.84762726777870E-03
    46 0.26726319545595E-03
    47 -.18377104930676E-03
    48 -.55921154653412E-02
    49 -.28485181411848E-03
    50 0.38393404576870E-03
    51 -.32343627083523E-04
    52 -.24297304358330E-04
    53 0.56640931441854E-04
    54 0.56462673501027E-04
    55 -.39496569867882E-06
    56 0.35124351048149E-04
    57 -.55705926358570E-03
    58 0.38253497978866E-03
    59 0.17452428379703E-03
    60 0.56689855300692E-04
    61 0.13743460405770E-03
    62 -.12148359141677E-03
    63 -.31989031655439E-03
    64 -.21084618385561E-04
    65 -.20347544119504E-03
    66 0.27594952782858E-03
    67 0.46720817857850E-05
    68 0.18890732412023E-03
    69 0.15322836806714E-03
    70 0.23615902208069E-04
    71 0.84083626838085E-04
    72 0.12610019267952E-04
    73 0.12819688250851E-04
    74 0.52103282900812E-04
    75 -.62672342488659E-03
    76 0.76489324302184E-03
    77 0.90767265945665E-03
    78 -.77136851187885E-04
    79 0.25958788910910E-03
    80 -.10889235596723E-03
    81 0.16500175726137E-03
    82 -.12353572933534E-02
    83 0.52051296542805E-03
    84 -.25682060712130E-03
    85 -.11797218472025E-02
    86 0.74132067751885E-03
    87 0.11253462835784E-04
    88 -.26610434257932E-04
    89 0.15356971422148E-04
    90 0.13565578259132E-04
    91 -.30290619682402E-05
    92 0.30026810678754E-04
    93 -.17022490516925E-03
    94 0.46708066862511E-03
    95 -.29685576345586E-03
    96 -.43870075439498E-03
    97 0.13569353936703E-03
    98 -.46121938136993E-03
    99 -.57701306719493E-04
   100 -.31899460180109E-04
   101 -.27718817440903E-04
   102 0.10312693678776E-03
   103 0.77836699933621E-05
   104 -.13636139707691E-04
   105 -.25712510258552E-04
   106 0.35013946851600E-04
   107 0.50824835739950E-04
   108 -.83654229412075E-04
   109 -.18744268410175E-04
   110 -.94653201611120E-04
   111 0.12117618432883E-02
   112 -.19527102544868E-02
   113 -.30115607741352E-02
   114 -.26248306860932E-03
   115 -.41767729781275E-03
   116 -.24879418969000E-03
   117 0.12655165585656E-02
   118 0.23307223267223E-02
   119 0.13892522969579E-02
   120 0.31048343845997E-03
   121 0.19610563103210E-02
   122 0.14655595906451E-02
   123 -.97913485465991E-05
   124 0.24393536630448E-04
   125 -.14602188083849E-04
   126 0.37752244354786E-04
   127 0.21839979186485E-04
   128 0.49907259873137E-04
   129 -.25318248827353E-04
   130 -.36746135973047E-03
   131 0.39277960855783E-03
   132 -.95584130157646E-03
   133 -.51615265270896E-03
   134 -.84017472005915E-03
   135 -.79281718559392E-04
   136 -.23517889358242E-04
   137 -.60127634236271E-04
   138 0.12582451352284E-03
   139 0.60532347199863E-04
   140 0.23542327414278E-04
   141 -.19456926279752E-04
   142 -.28979787624455E-04
   143 0.57127359072850E-04
   144 0.17078338461549E-03
   145 -.43024781513455E-03
   146 -.20699470931959E-02
   147 -.38745775827848E-02
   148 0.44530617040464E-03
   149 -.16736728854443E-02
   150 0.57304766567764E-03
   151 -.39073458911431E-03
   152 -.22789323837154E-02
   153 -.48640115439101E-02
   154 0.84401029879778E-04
   155 0.15074930983503E-04
   156 -.18172764196239E-02
   157 0.26520452679093E-03
   158 0.10447368432391E-02
   159 0.22088799968912E-02
   160 0.24834205586525E-03
   161 0.97353020697794E-03
   162 0.52830889853138E-03
   163 0.21355285127455E-03
   164 0.11875234837628E-02
   165 0.32069782279324E-02
   166 -.85314205516365E-04
   167 0.16509106414488E-03
   168 -.11010273329670E-02
   169 0.85781030133399E-04
   170 0.84234763232309E-03
   171 0.73991801388909E-03
   172 0.57076164952760E-05
   173 -.16917333046376E-03
   174 0.14807704936586E-04
   175 0.76012366568059E-04
   176 0.76822925423017E-03
   177 0.65390980818255E-03
   178 0.61926407586260E-05
   179 -.99848323582728E-04
   180 0.85443755387206E-04
   181 -.13493225205005E-03
   182 -.12254402625340E-02
   183 -.10247852100860E-02
   184 0.76165000059326E-04
   185 0.29609975351804E-03
   186 0.24773846058236E-04
   187 -.12736873748110E-03
   188 -.11884158733893E-02
   189 -.97724182751694E-03
   190 0.89653711392423E-04
   191 0.12697801468952E-03
   192 0.23026355926348E-03
 Sym=     5a   
 Ene= -.89641990471708E+00
 Spin= Alpha
 Occup= 2.000000
     1 -.41294368814040E-01
     2 -.86746364921149E-01
     3 0.13645762530001E+00
     4 0.11734748081119E+00
     5 0.10789220139151E-01
     6 0.56571910114759E-02
     7 0.37061459286707E-01
     8 0.20908233069203E-01
     9 -.25178050106082E-02
    10 0.19417284082066E-01
    11 0.10846080322160E-01
    12 -.24427614520156E-02
    13 0.39383457220672E-02
    14 -.89451630151304E-03
    15 0.54565306755559E-03
    16 0.50156011209756E-03