[Molden Format]
[Title]
                                                                                
[Atoms] AU
 c     1    6 -.23040791272145E+00 -.23780116621359E+00 0.19174856476163E+01
 c     2    6 -.18592208546603E+01 -.66983333991320E+00 -.44711256987280E+00
 c     3    6 -.46410656363178E+01 -.28240561104663E+00 0.29699666724160E-01
 o     4    8 -.62703993878182E+01 -.18402539740385E+01 -.27861580741156E+00
 o     5    8 -.51546543829218E+01 0.20813091208663E+01 0.87273577812960E+00
 c     6    6 0.25491061027478E+01 -.89858458962065E+00 0.15152404999259E+01
 c     7    6 0.39383574301735E+01 0.86821792386683E+00 -.24408897953388E+00
 o     8    8 0.31196174776888E+01 0.27907219655693E+01 -.11435916745979E+01
 o     9    8 0.63182438172706E+01 0.46286562494260E-01 -.69890556263698E+00
 h    10    1 -.39819048105664E+00 0.17272092442312E+01 0.25136558693561E+01
 h    11    1 -.94781901807394E+00 -.14077906763662E+01 0.34615051157482E+01
 h    12    1 -.16388672201539E+01 -.25926842536277E+01 -.11536598552186E+01
 h    13    1 -.12719119268882E+01 0.64523341259423E+00 -.19261784398783E+01
 h    14    1 -.69678761383629E+01 0.21732399912362E+01 0.11292284645088E+01
 h    15    1 0.27785867317833E+01 -.28247376314982E+01 0.80151245378600E+00
 h    16    1 0.35654037411045E+01 -.85460115356754E+00 0.33158998978636E+01
 h    17    1 0.71110957684820E+01 0.12764760647584E+01 -.18041639868666E+01
[GTO]
    1 0
 s    6 1.00
 0.13575349682000E+05 0.60645503603591E-03
 0.20352333680000E+04 0.46979088884982E-02
 0.46322562359000E+03 0.24332477647552E-01
 0.13120019598000E+03 0.97399968307759E-01
 0.42853015891000E+02 0.30195584253780E+00
 0.15584185766000E+02 0.66233609137875E+00
 s    2 1.00
 0.62067138508000E+01 0.65595308539952E+00
 0.25764896527000E+01 0.37585633285142E+00
 s    1 1.00
 0.57696339419000E+00 0.10000000000000E+01
 s    1 1.00
 0.22972831358000E+00 0.10000000000000E+01
 s    1 1.00
 0.95164440028000E-01 0.10000000000000E+01
 p    4 1.00
 0.34697232244000E+02 0.11327220003114E-01
 0.79582622826000E+01 0.76169659202087E-01
 0.23780826883000E+01 0.30192252202676E+00
 0.81433208183000E+00 0.72785027349547E+00
 p    1 1.00
 0.28887547253000E+00 0.10000000000000E+01
 p    1 1.00
 0.10056823671000E+00 0.10000000000000E+01
 d    1 1.00
 0.10970000000000E+01 0.10000000000000E+01
 d    1 1.00
 0.31800000000000E+00 0.10000000000000E+01
 f    1 1.00
 0.76100000000000E+00 0.10000000000000E+01
 
    2 0
 s    6 1.00
 0.13575349682000E+05 0.60645503603591E-03
 0.20352333680000E+04 0.46979088884982E-02
 0.46322562359000E+03 0.24332477647552E-01
 0.13120019598000E+03 0.97399968307759E-01
 0.42853015891000E+02 0.30195584253780E+00
 0.15584185766000E+02 0.66233609137875E+00
 s    2 1.00
 0.62067138508000E+01 0.65595308539952E+00
 0.25764896527000E+01 0.37585633285142E+00
 s    1 1.00
 0.57696339419000E+00 0.10000000000000E+01
 s    1 1.00
 0.22972831358000E+00 0.10000000000000E+01
 s    1 1.00
 0.95164440028000E-01 0.10000000000000E+01
 p    4 1.00
 0.34697232244000E+02 0.11327220003114E-01
 0.79582622826000E+01 0.76169659202087E-01
 0.23780826883000E+01 0.30192252202676E+00
 0.81433208183000E+00 0.72785027349547E+00
 p    1 1.00
 0.28887547253000E+00 0.10000000000000E+01
 p    1 1.00
 0.10056823671000E+00 0.10000000000000E+01
 d    1 1.00
 0.10970000000000E+01 0.10000000000000E+01
 d    1 1.00
 0.31800000000000E+00 0.10000000000000E+01
 f    1 1.00
 0.76100000000000E+00 0.10000000000000E+01
 
    3 0
 s    6 1.00
 0.13575349682000E+05 0.60645503603591E-03
 0.20352333680000E+04 0.46979088884982E-02
 0.46322562359000E+03 0.24332477647552E-01
 0.13120019598000E+03 0.97399968307759E-01
 0.42853015891000E+02 0.30195584253780E+00
 0.15584185766000E+02 0.66233609137875E+00
 s    2 1.00
 0.62067138508000E+01 0.65595308539952E+00
 0.25764896527000E+01 0.37585633285142E+00
 s    1 1.00
 0.57696339419000E+00 0.10000000000000E+01
 s    1 1.00
 0.22972831358000E+00 0.10000000000000E+01
 s    1 1.00
 0.95164440028000E-01 0.10000000000000E+01
 p    4 1.00
 0.34697232244000E+02 0.11327220003114E-01
 0.79582622826000E+01 0.76169659202087E-01
 0.23780826883000E+01 0.30192252202676E+00
 0.81433208183000E+00 0.72785027349547E+00
 p    1 1.00
 0.28887547253000E+00 0.10000000000000E+01
 p    1 1.00
 0.10056823671000E+00 0.10000000000000E+01
 d    1 1.00
 0.10970000000000E+01 0.10000000000000E+01
 d    1 1.00
 0.31800000000000E+00 0.10000000000000E+01
 f    1 1.00
 0.76100000000000E+00 0.10000000000000E+01
 
    4 0
 s    6 1.00
 0.27032382631000E+05 0.57227335211155E-03
 0.40523871392000E+04 0.44353233492995E-02
 0.92232722710000E+03 0.23020107706038E-01
 0.26124070989000E+03 0.92822490667928E-01
 0.85354641351000E+02 0.29378500009671E+00
 0.31035035245000E+02 0.67401604501641E+00
 s    2 1.00
 0.12260860728000E+02 0.63839937025506E+00
 0.49987076005000E+01 0.39534587125718E+00
 s    1 1.00
 0.11703108158000E+01 0.10000000000000E+01
 s    1 1.00
 0.46474740994000E+00 0.10000000000000E+01
 s    1 1.00
 0.18504536357000E+00 0.10000000000000E+01
 p    4 1.00
 0.63274954801000E+02 0.12018332222616E-01
 0.14627049379000E+02 0.83005421790056E-01
 0.44501223456000E+01 0.31991743925964E+00
 0.15275799647000E+01 0.70715542916104E+00
 p    1 1.00
 0.52935117943000E+00 0.10000000000000E+01
 p    1 1.00
 0.17478421270000E+00 0.10000000000000E+01
 d    1 1.00
 0.23140000000000E+01 0.10000000000000E+01
 d    1 1.00
 0.64500000000000E+00 0.10000000000000E+01
 f    1 1.00
 0.14280000000000E+01 0.10000000000000E+01
 
    5 0
 s    6 1.00
 0.27032382631000E+05 0.57227335211155E-03
 0.40523871392000E+04 0.44353233492995E-02
 0.92232722710000E+03 0.23020107706038E-01
 0.26124070989000E+03 0.92822490667928E-01
 0.85354641351000E+02 0.29378500009671E+00
 0.31035035245000E+02 0.67401604501641E+00
 s    2 1.00
 0.12260860728000E+02 0.63839937025506E+00
 0.49987076005000E+01 0.39534587125718E+00
 s    1 1.00
 0.11703108158000E+01 0.10000000000000E+01
 s    1 1.00
 0.46474740994000E+00 0.10000000000000E+01
 s    1 1.00
 0.18504536357000E+00 0.10000000000000E+01
 p    4 1.00
 0.63274954801000E+02 0.12018332222616E-01
 0.14627049379000E+02 0.83005421790056E-01
 0.44501223456000E+01 0.31991743925964E+00
 0.15275799647000E+01 0.70715542916104E+00
 p    1 1.00
 0.52935117943000E+00 0.10000000000000E+01
 p    1 1.00
 0.17478421270000E+00 0.10000000000000E+01
 d    1 1.00
 0.23140000000000E+01 0.10000000000000E+01
 d    1 1.00
 0.64500000000000E+00 0.10000000000000E+01
 f    1 1.00
 0.14280000000000E+01 0.10000000000000E+01
 
    6 0
 s    6 1.00
 0.13575349682000E+05 0.60645503603591E-03
 0.20352333680000E+04 0.46979088884982E-02
 0.46322562359000E+03 0.24332477647552E-01
 0.13120019598000E+03 0.97399968307759E-01
 0.42853015891000E+02 0.30195584253780E+00
 0.15584185766000E+02 0.66233609137875E+00
 s    2 1.00
 0.62067138508000E+01 0.65595308539952E+00
 0.25764896527000E+01 0.37585633285142E+00
 s    1 1.00
 0.57696339419000E+00 0.10000000000000E+01
 s    1 1.00
 0.22972831358000E+00 0.10000000000000E+01
 s    1 1.00
 0.95164440028000E-01 0.10000000000000E+01
 p    4 1.00
 0.34697232244000E+02 0.11327220003114E-01
 0.79582622826000E+01 0.76169659202087E-01
 0.23780826883000E+01 0.30192252202676E+00
 0.81433208183000E+00 0.72785027349547E+00
 p    1 1.00
 0.28887547253000E+00 0.10000000000000E+01
 p    1 1.00
 0.10056823671000E+00 0.10000000000000E+01
 d    1 1.00
 0.10970000000000E+01 0.10000000000000E+01
 d    1 1.00
 0.31800000000000E+00 0.10000000000000E+01
 f    1 1.00
 0.76100000000000E+00 0.10000000000000E+01
 
    7 0
 s    6 1.00
 0.13575349682000E+05 0.60645503603591E-03
 0.20352333680000E+04 0.46979088884982E-02
 0.46322562359000E+03 0.24332477647552E-01
 0.13120019598000E+03 0.97399968307759E-01
 0.42853015891000E+02 0.30195584253780E+00
 0.15584185766000E+02 0.66233609137875E+00
 s    2 1.00
 0.62067138508000E+01 0.65595308539952E+00
 0.25764896527000E+01 0.37585633285142E+00
 s    1 1.00
 0.57696339419000E+00 0.10000000000000E+01
 s    1 1.00
 0.22972831358000E+00 0.10000000000000E+01
 s    1 1.00
 0.95164440028000E-01 0.10000000000000E+01
 p    4 1.00
 0.34697232244000E+02 0.11327220003114E-01
 0.79582622826000E+01 0.76169659202087E-01
 0.23780826883000E+01 0.30192252202676E+00
 0.81433208183000E+00 0.72785027349547E+00
 p    1 1.00
 0.28887547253000E+00 0.10000000000000E+01
 p    1 1.00
 0.10056823671000E+00 0.10000000000000E+01
 d    1 1.00
 0.10970000000000E+01 0.10000000000000E+01
 d    1 1.00
 0.31800000000000E+00 0.10000000000000E+01
 f    1 1.00
 0.76100000000000E+00 0.10000000000000E+01
 
    8 0
 s    6 1.00
 0.27032382631000E+05 0.57227335211155E-03
 0.40523871392000E+04 0.44353233492995E-02
 0.92232722710000E+03 0.23020107706038E-01
 0.26124070989000E+03 0.92822490667928E-01
 0.85354641351000E+02 0.29378500009671E+00
 0.31035035245000E+02 0.67401604501641E+00
 s    2 1.00
 0.12260860728000E+02 0.63839937025506E+00
 0.49987076005000E+01 0.39534587125718E+00
 s    1 1.00
 0.11703108158000E+01 0.10000000000000E+01
 s    1 1.00
 0.46474740994000E+00 0.10000000000000E+01
 s    1 1.00
 0.18504536357000E+00 0.10000000000000E+01
 p    4 1.00
 0.63274954801000E+02 0.12018332222616E-01
 0.14627049379000E+02 0.83005421790056E-01
 0.44501223456000E+01 0.31991743925964E+00
 0.15275799647000E+01 0.70715542916104E+00
 p    1 1.00
 0.52935117943000E+00 0.10000000000000E+01
 p    1 1.00
 0.17478421270000E+00 0.10000000000000E+01
 d    1 1.00
 0.23140000000000E+01 0.10000000000000E+01
 d    1 1.00
 0.64500000000000E+00 0.10000000000000E+01
 f    1 1.00
 0.14280000000000E+01 0.10000000000000E+01
 
    9 0
 s    6 1.00
 0.27032382631000E+05 0.57227335211155E-03
 0.40523871392000E+04 0.44353233492995E-02
 0.92232722710000E+03 0.23020107706038E-01
 0.26124070989000E+03 0.92822490667928E-01
 0.85354641351000E+02 0.29378500009671E+00
 0.31035035245000E+02 0.67401604501641E+00
 s    2 1.00
 0.12260860728000E+02 0.63839937025506E+00
 0.49987076005000E+01 0.39534587125718E+00
 s    1 1.00
 0.11703108158000E+01 0.10000000000000E+01
 s    1 1.00
 0.46474740994000E+00 0.10000000000000E+01
 s    1 1.00
 0.18504536357000E+00 0.10000000000000E+01
 p    4 1.00
 0.63274954801000E+02 0.12018332222616E-01
 0.14627049379000E+02 0.83005421790056E-01
 0.44501223456000E+01 0.31991743925964E+00
 0.15275799647000E+01 0.70715542916104E+00
 p    1 1.00
 0.52935117943000E+00 0.10000000000000E+01
 p    1 1.00
 0.17478421270000E+00 0.10000000000000E+01
 d    1 1.00
 0.23140000000000E+01 0.10000000000000E+01
 d    1 1.00
 0.64500000000000E+00 0.10000000000000E+01
 f    1 1.00
 0.14280000000000E+01 0.10000000000000E+01
 
   10 0
 s    3 1.00
 0.34061341000000E+02 0.25439307208879E-01
 0.51235746000000E+01 0.19008594890375E+00
 0.11646626000000E+01 0.85244113011042E+00
 s    1 1.00
 0.32723041000000E+00 0.10000000000000E+01
 s    1 1.00
 0.10307241000000E+00 0.10000000000000E+01
 p    1 1.00
 0.80000000000000E+00 0.10000000000000E+01
 
   11 0
 s    3 1.00
 0.34061341000000E+02 0.25439307208879E-01
 0.51235746000000E+01 0.19008594890375E+00
 0.11646626000000E+01 0.85244113011042E+00
 s    1 1.00
 0.32723041000000E+00 0.10000000000000E+01
 s    1 1.00
 0.10307241000000E+00 0.10000000000000E+01
 p    1 1.00
 0.80000000000000E+00 0.10000000000000E+01
 
   12 0
 s    3 1.00
 0.34061341000000E+02 0.25439307208879E-01
 0.51235746000000E+01 0.19008594890375E+00
 0.11646626000000E+01 0.85244113011042E+00
 s    1 1.00
 0.32723041000000E+00 0.10000000000000E+01
 s    1 1.00
 0.10307241000000E+00 0.10000000000000E+01
 p    1 1.00
 0.80000000000000E+00 0.10000000000000E+01
 
   13 0
 s    3 1.00
 0.34061341000000E+02 0.25439307208879E-01
 0.51235746000000E+01 0.19008594890375E+00
 0.11646626000000E+01 0.85244113011042E+00
 s    1 1.00
 0.32723041000000E+00 0.10000000000000E+01
 s    1 1.00
 0.10307241000000E+00 0.10000000000000E+01
 p    1 1.00
 0.80000000000000E+00 0.10000000000000E+01
 
   14 0
 s    3 1.00
 0.34061341000000E+02 0.25439307208879E-01
 0.51235746000000E+01 0.19008594890375E+00
 0.11646626000000E+01 0.85244113011042E+00
 s    1 1.00
 0.32723041000000E+00 0.10000000000000E+01
 s    1 1.00
 0.10307241000000E+00 0.10000000000000E+01
 p    1 1.00
 0.80000000000000E+00 0.10000000000000E+01
 
   15 0
 s    3 1.00
 0.34061341000000E+02 0.25439307208879E-01
 0.51235746000000E+01 0.19008594890375E+00
 0.11646626000000E+01 0.85244113011042E+00
 s    1 1.00
 0.32723041000000E+00 0.10000000000000E+01
 s    1 1.00
 0.10307241000000E+00 0.10000000000000E+01
 p    1 1.00
 0.80000000000000E+00 0.10000000000000E+01
 
   16 0
 s    3 1.00
 0.34061341000000E+02 0.25439307208879E-01
 0.51235746000000E+01 0.19008594890375E+00
 0.11646626000000E+01 0.85244113011042E+00
 s    1 1.00
 0.32723041000000E+00 0.10000000000000E+01
 s    1 1.00
 0.10307241000000E+00 0.10000000000000E+01
 p    1 1.00
 0.80000000000000E+00 0.10000000000000E+01
 
   17 0
 s    3 1.00
 0.34061341000000E+02 0.25439307208879E-01
 0.51235746000000E+01 0.19008594890375E+00
 0.11646626000000E+01 0.85244113011042E+00
 s    1 1.00
 0.32723041000000E+00 0.10000000000000E+01
 s    1 1.00
 0.10307241000000E+00 0.10000000000000E+01
 p    1 1.00
 0.80000000000000E+00 0.10000000000000E+01
 
[MO]
 Sym=     1a   
 Ene= -.19183014981945E+02
 Spin= Alpha
 Occup= 2.000000
     1 0.11466501548587E-05
     2 -.49843827536274E-05
     3 -.25048075064452E-03
     4 0.29409417388434E-02
     5 -.58387787035893E-02
     6 0.66786508218992E-04
     7 0.39606539046694E-04
     8 -.49188776823810E-06
     9 0.57669742455294E-03
    10 -.79125508553630E-03
    11 -.65812787454496E-03
    12 -.14978607641048E-02
    13 -.31120564497409E-02
    14 0.33986376657959E-02
    15 0.27299540350550E-04
    16 -.24672795761193E-04
    17 -.26267445893572E-05
    18 0.35324011606796E-04
    19 -.49380985265078E-04
    20 -.16521274735253E-04
    21 0.17697690097806E-03
    22 -.26969647845594E-03
    23 0.92719577477882E-04
    24 -.15271079303243E-03
    25 0.32409480179212E-03
    26 0.15950783282814E-04
    27 0.88244772973840E-05
    28 -.73554982551027E-05
    29 -.30487504421920E-06
    30 0.58943452090182E-05
    31 0.89511134146667E-05
    32 0.27789233718143E-05
    33 -.17733623870731E-04
    34 0.91732304940769E-06
    35 -.23698905777039E-05
    36 0.67152549658408E-06
    37 0.33384067791058E-05
    38 -.16938174373380E-04
    39 0.39446232753570E-03
    40 -.21373934630862E-02
    41 0.73695672293429E-02
    42 -.26737315928642E-04
    43 0.91360565207781E-05
    44 0.17158143271241E-04
    45 0.41648338823011E-03
    46 -.49931839122720E-04
    47 -.87964163481454E-03
    48 -.69168254907485E-04
    49 0.28338927497913E-02
    50 0.46994376204154E-03
    51 0.10718697769823E-04
    52 -.10541991042259E-04
    53 -.17670672756403E-06
    54 -.58605105723328E-05
    55 -.21852575873743E-04
    56 -.11468635296103E-04
    57 -.22138629876333E-03
    58 0.24137516036250E-03
    59 -.19988861599161E-04
    60 0.60770292133220E-04
    61 -.64533113227832E-04
    62 -.10843629858964E-03
    63 0.10674673608929E-04
    64 0.39392124503435E-05
    65 0.61354007619537E-05
    66 0.25412432314284E-06
    67 -.34387104679636E-05
    68 -.88625372565785E-05
    69 -.14575701819456E-04
    70 -.18462976221054E-05
    71 0.63103335281902E-06
    72 -.62868479638123E-05
    73 0.16436747004048E-05
    74 -.76878063585020E-05
    75 -.61567249714182E-04
    76 0.71158867796077E-03
    77 -.28881739220963E-02
    78 -.10102931467670E-04
    79 0.17003463804342E-04
    80 -.12833068752318E-04
    81 0.72757434752500E-03
    82 -.46027661218661E-04
    83 -.12591174319179E-04
    84 -.14634649749897E-02
    85 -.31710732844328E-03
    86 -.79582035997595E-04
    87 0.81565247281559E-05
    88 -.31868870674591E-05
    89 -.49696376606968E-05
    90 0.64319616014751E-05
    91 -.43147201024674E-05
    92 -.45038043155511E-05
    93 0.16454434404265E-03
    94 -.12657250025669E-03
    95 -.37971843785956E-04
    96 -.13441334432656E-03
    97 -.23638057589726E-04
    98 0.18151904569769E-04
    99 0.98124224968688E-05
   100 0.77612416211702E-06
   101 0.75260510349455E-06
   102 -.26184613355932E-05
   103 -.58761357146475E-06
   104 -.49629368046059E-06
   105 -.10546284900575E-04
   106 -.45366625981949E-06
   107 -.51343202251566E-06
   108 0.39177045740832E-05
   109 -.12322309052848E-05
   110 0.22639572538896E-06
   111 -.27398213329428E-04
   112 0.19594280848949E-03
   113 -.61268999917525E-05
   114 0.45021279433127E-05
   115 -.32588164795533E-05
   116 -.95275348117941E-06
   117 0.36140324056898E-04
   118 0.59781087297141E-04
   119 0.16513151458453E-04
   120 0.27026428747593E-03
   121 -.77339788275848E-04
   122 0.40067779453513E-04
   123 -.36331636787507E-05
   124 0.53929368517654E-05
   125 -.17597731730146E-05
   126 -.14025349499725E-05
   127 -.27841385166196E-05
   128 0.51204527063848E-06
   129 0.14222644791272E-04
   130 -.17743570451789E-04
   131 0.35209256605168E-05
   132 0.11089155726395E-04
   133 0.12122528328319E-04
   134 -.81892208941422E-06
   135 -.66306648742460E-06
   136 0.52201491768114E-06
   137 0.51363303034840E-06
   138 0.26059760551036E-06
   139 -.86580947761395E-06
   140 -.51707679155658E-07
   141 0.62899943817968E-06
   142 0.16545297289157E-06
   143 -.63740334365328E-06
   144 -.27549388918985E-06
   145 -.71831931826061E-06
   146 -.49168586908142E-06
   147 -.14368362555514E-04
   148 0.57028126986823E-04
   149 0.26417705821559E-03
   150 -.22000461706555E-05
   151 0.54847768465260E-05
   152 0.71387275591106E-05
   153 -.73171952040257E-05
   154 -.33614593654797E-04
   155 -.39755966928344E-04
   156 -.62080355684121E-04
   157 0.59734090684958E-04
   158 0.11378713146165E-03
   159 -.20481297704937E-05
   160 0.32522520047217E-05
   161 -.12041222342280E-05
   162 0.16521035442945E-05
   163 -.27593382083609E-05
   164 0.13108366422206E-05
   165 0.16772670592781E-04
   166 -.17355073426144E-04
   167 0.58240283336295E-06
   168 -.10674742845493E-04
   169 0.31183402820532E-05
   170 -.21941944739733E-05
   171 -.14198210361601E-05
   172 0.52319040825826E-06
   173 -.78222591649498E-06
   174 0.13744575563579E-05
   175 -.12808391233274E-06
   176 0.13065745308860E-05
   177 0.53043225528506E-06
   178 -.57384967849207E-06
   179 -.25710833705910E-06
   180 0.11257012564179E-05
   181 0.12564550194857E-04
   182 -.60689510461240E-04
   183 0.12469472794218E-03
   184 0.25855518935669E-02
   185 0.13269824094296E-02
   186 0.14259051047698E-04
   187 0.26131121865202E-04
   188 -.50341039839928E-04
   189 0.17048066644830E-02
   190 0.10598074678646E-02
   191 -.12306285680635E-02
   192 0.12239971047908E-02
   193 0.79295263267392E-03
   194 -.16885479561331E-02
   195 0.36617543024444E-04
   196 -.16739185430697E-04
   197 -.19878357593747E-04
   198 -.36458281972067E-05
   199 -.48717238936069E-04
   200 -.30698622614352E-04
   201 -.61534746509974E-03
   202 0.31174577423976E-03
   203 0.30360169085998E-03
   204 0.42819527121862E-03
   205 0.14177518490722E-03
   206 -.23579047949265E-03
   207 -.26784242283931E-04
   208 -.43266150428749E-05
   209 -.15322465006464E-05
   210 0.25781871531680E-04
   211 -.13378034521434E-04
   212 0.30464854001661E-04
   213 0.10152960351937E-04
   214 0.19182797730439E-04
   215 -.28409129601422E-04
   216 -.15116085571377E-04
   217 0.43172253626997E-04
   218 -.23225498092203E-03
   219 -.30881073624847E-03
   220 0.21116691252982E-02
   221 -.40512935629699E-02
   222 -.23160284439451E-04
   223 -.58569515905334E-04
   224 0.26882882287486E-04
   225 0.71563151531491E-02
   226 -.14548277516227E-02
   227 -.19589125365801E-02
   228 -.62543783090761E-02
   229 0.40788076708300E-02
   230 -.13297830292054E-03
   231 0.24124233443000E-03
   232 -.11188449511723E-03
   233 -.12935783931278E-03
   234 -.12774327866153E-03
   235 -.10976281017591E-03
   236 0.13035543849290E-04
   237 0.19571328558288E-02
   238 -.90750678704873E-03
   239 -.10496260687800E-02
   240 -.14640484030007E-02
   241 -.31893720337972E-03
   242 0.80945139177532E-03
   243 0.82594186456619E-04
   244 0.27076121411464E-04
   245 0.44394283207683E-04
   246 -.29671005349459E-04
   247 -.85856851078928E-04
   248 -.12989707318740E-03
   249 -.81140723928517E-04
   250 0.49530422253086E-04
   251 0.70335892148550E-04
   252 -.37918665015201E-04
   253 -.44719615988585E-04
   254 -.45306389033252E-04
   255 -.31779573268493E-03
   256 0.21757618241722E-02
   257 -.31992129082226E-02
   258 0.42941792055165E-05
   259 -.77192509019759E-04
   260 0.39040366666687E-04
   261 0.47351923925655E-03
   262 -.16681340838619E-03
   263 -.73385879625694E-04
   264 0.57901195950302E-03
   265 0.11084877156657E-03
   266 -.40917757421821E-03
   267 0.18760496641192E-04
   268 0.12286033566162E-05
   269 -.19989099997808E-04
   270 -.14372641667982E-04
   271 -.19604078326297E-04
   272 -.32183718454615E-04
   273 -.50938380933262E-04
   274 0.18842888847893E-04
   275 0.32095492085368E-04
   276 -.26362087643769E-04
   277 0.97696076427845E-04
   278 0.11762142019479E-03
   279 -.85138242509061E-05
   280 -.83047992688426E-05
   281 0.77616517714151E-06
   282 -.25498482213170E-06
   283 0.14699630188137E-04
   284 0.77274558242574E-05
   285 0.11677478686239E-04
   286 -.35575727653633E-05
   287 -.87687906829714E-05
   288 -.58375351220437E-06
   289 0.43508782706453E+00
   290 0.63949742092263E+00
   291 0.36637245271457E-01
   292 -.29890185218815E-01
   293 0.13262201170057E-01
   294 -.11391824869660E-02
   295 0.14684573063895E-02
   296 -.45499661892678E-03
   297 0.43839192088083E-02
   298 -.30535681100856E-02
   299 0.10923561535709E-03
   300 -.11033676405457E-02
   301 0.44611838214527E-03
   302 0.24087486717481E-03
   303 0.89672910476630E-04
   304 -.31038000616920E-04
   305 -.58634909859711E-04
   306 -.27610499131383E-04
   307 -.76775552649186E-04
   308 -.46065219166399E-04
   309 -.60873135444053E-03
   310 0.22348265265155E-03
   311 0.38524870178898E-03
   312 0.25121110862514E-03
   313 0.43474709868513E-03
   314 0.20428125376076E-03
   315 0.55916500493119E-04
   316 0.37867659190947E-04
   317 -.68991865657023E-05
   318 -.31219039040144E-04
   319 -.42990915302459E-04
   320 -.19519472017315E-04
   321 -.43800818659765E-04
   322 -.78138807573923E-05
   323 0.28775702107533E-04
   324 0.48131607394830E-04
   325 -.57590553510505E-04
   326 0.12437959280964E-02
   327 0.10352483385683E-02
   328 0.62399553762426E-04
   329 -.11332116910143E-03
   330 -.10877433516399E-03
   331 0.52379509767969E-04
   332 -.25272102861172E-03
   333 -.16354682343958E-02
   334 -.64255271935143E-04
   335 -.46064505619896E-05
   336 0.12782868158870E-04
   337 -.33001786435662E-04
   338 0.10242371297993E-03
   339 0.58739319093724E-03
   340 0.16410560623099E-04
   341 0.87937639381683E-05
   342 0.18789505970237E-04
   343 0.61351345022637E-04
   344 -.74976740604476E-03
   345 -.20168259753471E-02
   346 0.20285578993861E-04
   347 0.15027967602811E-04
   348 -.88156836357613E-04
   349 0.64117205157451E-05
   350 -.15217996767313E-03
   351 -.53128147839214E-04
   352 -.35170069839065E-04
   353 0.13079664350829E-04
   354 0.90021079269707E-05
   355 -.22550759760340E-04
   356 -.26911233112448E-03
   357 0.66502843306066E-03
   358 0.11265342343113E-03
   359 -.65601818789535E-04
   360 -.11169848916697E-04
   361 -.68863828703874E-04
   362 -.34314588915617E-03
   363 0.12429124253228E-02
   364 0.79941000781945E-04
   365 -.34017233330554E-04
   366 0.54232099405339E-04
   367 0.84003957400294E-03
   368 0.10907483860306E-02
   369 -.48799089176183E-03
   370 -.39378214147926E-03
   371 -.64500313354762E-03
   372 0.56883239501299E-03
 Sym=     2a   
 Ene= -.19174455652716E+02
 Spin= Alpha
 Occup= 2.000000
     1 0.29347944148507E-05
     2 -.15497483971653E-04
     3 0.65672195598197E-03
     4 -.35221739634421E-02
     5 0.28410517258828E-02
     6 0.12324518401986E-04
     7 -.30620063751302E-04
     8 -.43791218857494E-04
     9 -.16540578813681E-03
    10 0.45243477007513E-03
    11 0.12108161910922E-02
    12 -.19236593814144E-02
    13 -.19837271503983E-02
    14 -.26497983957048E-03
    15 0.11096058576602E-04
    16 0.12472282501332E-05
    17 -.12343286826735E-04
    18 -.41947908182848E-04
    19 -.30105926360041E-05
    20 -.12738327183252E-05
    21 -.34570114603663E-03
    22 0.21726886261455E-03
    23 0.12843228342209E-03
    24 0.11014665304830E-03
    25 -.29598576812119E-03
    26 -.27752033400856E-03
    27 -.19243906025087E-04
    28 -.17460314611186E-04
    29 -.12802818217151E-04
    30 0.33233500194026E-05
    31 0.29316204672476E-04
    32 0.27404710366980E-04
    33 0.22495059195424E-04
    34 -.58907344449894E-05
    35 -.10227927264706E-04
    36 0.24372116406981E-04
    37 0.75225695914552E-05
    38 -.35148589238423E-04
    39 -.30088556077020E-03
    40 0.49218410459857E-02
    41 -.97842709252787E-02
    42 -.13287076209258E-03
    43 -.23329124191319E-04
    44 -.62456250102431E-04
    45 -.11529207995010E-02
    46 0.16475134826046E-02
    47 0.14357214099499E-02
    48 0.31739457727831E-02
    49 0.26413914062491E-02
    50 -.84923719912980E-03
    51 0.70682885621982E-04
    52 -.44340499150498E-05
    53 -.66248835706932E-04
    54 0.33072516653153E-04
    55 -.15055577710749E-04
    56 0.31506824398157E-04
    57 0.21514681459594E-03
    58 -.78799568741006E-03
    59 0.57284887281412E-03
    60 -.14270653114258E-03
    61 0.15219708850063E-03
    62 -.48114020989368E-03
    63 -.47099681071094E-04
    64 0.11173010706105E-04
    65 0.85800562093784E-05
    66 0.36828514086717E-04
    67 -.30465068342366E-04
    68 -.49001547525338E-05
    69 0.26362339069398E-04
    70 0.15474901471056E-04
    71 -.66111986084297E-05
    72 0.14082313147631E-04
    73 0.38055183802314E-04
    74 -.20712501481530E-03
    75 -.64840909953942E-03
    76 0.39054079173761E-02
    77 0.10160884139609E-02
    78 0.23772381698462E-04
    79 0.54079718339814E-04
    80 -.19910447890933E-04
    81 -.21194142601684E-02
    82 0.58458979882887E-02
    83 0.23168966695418E-02
    84 0.15885005680179E-02
    85 -.65386868620813E-02
    86 -.25489168051566E-02
    87 -.66372516261596E-04
    88 0.20820395769478E-03
    89 -.14183144143319E-03
    90 -.98783595606987E-04
    91 -.59553716187969E-04
    92 0.16462568017634E-03
    93 -.18696440071935E-02
    94 0.21991296164890E-02
    95 -.32948560929545E-03
    96 -.86606168985661E-03
    97 -.81359647737479E-04
    98 0.12057418223793E-02
    99 0.28098433662290E-04
   100 0.56106969330881E-04
   101 -.10830036946202E-03
   102 -.42827231132301E-04
   103 0.12719353198662E-04
   104 0.89775537756596E-05
   105 0.51292264942123E-05
   106 -.87994751659870E-04
   107 0.13632263908759E-03
   108 -.51965589827621E-04
   109 -.42336883919178E-04
   110 -.44192852030639E-04
   111 -.26798428022187E-03
   112 0.20184351948507E-02
   113 -.28234239557273E-02
   114 0.82680092623817E-04
   115 0.62942511969377E-04
   116 0.23554257013376E-04
   117 -.19143298501793E-03
   118 0.36562409058959E-03
   119 0.88455214588611E-04
   120 -.91327001285540E-03
   121 0.80693417481102E-03
   122 0.54925385230049E-03
   123 0.39432863704927E-04
   124 0.53586919599201E-05
   125 -.44791555664847E-04
   126 -.85054179146181E-06
   127 -.16719594096190E-04
   128 0.21028614387760E-04
   129 -.21666342578255E-03
   130 0.63336683583599E-04
   131 0.15332674219895E-03
   132 0.32690924537839E-04
   133 0.74630544660099E-04
   134 -.43971303168451E-04
   135 -.88944987350440E-05
   136 -.82532226331909E-05
   137 0.90239246583056E-05
   138 0.48746793480157E-05
   139 0.14139493887910E-05
   140 0.30920890879641E-05
   141 0.70585429303909E-05
   142 0.96589107159618E-05
   143 -.15198954463849E-04
   144 0.35065639679101E-06
   145 0.43508638737520E+00
   146 0.63951187738955E+00
   147 0.36515767136351E-01
   148 -.29577038767560E-01
   149 0.12483273745807E-01
   150 -.93866025129563E-03
   151 -.16262164078635E-02
   152 -.41411044730229E-03
   153 0.82422716000976E-03
   154 0.50664744199434E-02
   155 0.15658869164088E-02
   156 0.92962229900078E-04
   157 -.11311186300766E-02
   158 -.38196596211053E-03
   159 0.20405965181732E-04
   160 0.61930841526999E-04
   161 -.82336806708731E-04
   162 -.53479167783302E-04
   163 -.34469546459411E-04
   164 0.70400579030047E-04
   165 -.14846417352251E-04
   166 -.46804692438878E-03
   167 0.48289334174103E-03
   168 0.31592424243603E-03
   169 0.19267151497072E-03
   170 -.45499934497475E-03
   171 0.64199266190446E-04
   172 0.39685426825650E-04
   173 -.89373623903595E-05
   174 -.56648681454576E-04
   175 -.39625830420141E-04
   176 -.31416282628989E-04
   177 -.29483672529889E-04
   178 -.13617756838807E-04
   179 0.43407012535626E-04
   180 -.77115951847761E-05
   181 0.33480496056401E-05
   182 -.15924112293989E-04
   183 -.65720861609251E-04
   184 0.51355700984471E-03
   185 0.25503509368441E-02
   186 0.45934620051953E-04
   187 0.36434308538495E-04
   188 -.35043215463574E-04
   189 -.11923255796168E-02
   190 -.33381410071435E-03
   191 0.56292564671763E-03
   192 0.49740599967459E-03
   193 0.18004295554349E-02
   194 -.18934079300548E-03
   195 0.16585809301335E-04
   196 -.10119079849527E-04
   197 -.64667294518077E-05
   198 -.22987825886757E-05
   199 0.20607095141497E-05
   200 -.40731025320174E-05
   201 0.19121814769960E-03
   202 -.82623612539693E-04
   203 -.10859453515990E-03
   204 -.18824638017405E-03
   205 -.12620302728264E-05
   206 0.17813478159800E-03
   207 -.13415507146413E-04
   208 -.52903078355381E-05
   209 -.40807870350018E-05
   210 0.66869839197625E-05
   211 0.69580587290565E-05
   212 0.10285257662951E-04
   213 0.11311807639446E-04
   214 0.13963403624124E-06
   215 -.48103073357732E-05
   216 0.31895064591229E-05
   217 -.26766848377214E-06
   218 0.15906758334892E-05
   219 -.76809736132063E-04
   220 0.85838834159027E-03
   221 -.30617599379164E-02
   222 0.15085604207675E-04
   223 0.11044250911358E-04
   224 -.12105631833451E-05
   225 -.43893920281645E-03