[Molden Format]
[Title]
                                                                                
[Atoms] AU
 c     1    6 -.15288671498821E+01 -.42669917819887E+00 -.40362093162050E+00
 c     2    6 0.12170821384023E+01 0.99597355408010E-01 0.17758809906296E+00
 o     3    8 0.19257804245283E+01 0.19175411834669E+01 0.13530521278225E+01
 o     4    8 0.27740518022355E+01 -.16755050319406E+01 -.75527475638405E+00
 o     5    8 -.31027555492368E+01 0.14663946553165E+01 0.57745651662679E+00
 h     6    1 -.20141799545514E+01 -.22783013461842E+01 0.39054519080215E+00
 h     7    1 -.17405519732226E+01 -.57120935625746E+00 -.24596461128664E+01
 h     8    1 0.44901069270857E+01 -.12065671291449E+01 -.30802751775495E+00
 h     9    1 -.20206647756352E+01 0.26747488475351E+01 0.14279254945861E+01
[GTO]
    1 0
 s    6 1.00
 0.13575349682000E+05 0.60645503603591E-03
 0.20352333680000E+04 0.46979088884982E-02
 0.46322562359000E+03 0.24332477647552E-01
 0.13120019598000E+03 0.97399968307759E-01
 0.42853015891000E+02 0.30195584253780E+00
 0.15584185766000E+02 0.66233609137875E+00
 s    2 1.00
 0.62067138508000E+01 0.65595308539952E+00
 0.25764896527000E+01 0.37585633285142E+00
 s    1 1.00
 0.57696339419000E+00 0.10000000000000E+01
 s    1 1.00
 0.22972831358000E+00 0.10000000000000E+01
 s    1 1.00
 0.95164440028000E-01 0.10000000000000E+01
 p    4 1.00
 0.34697232244000E+02 0.11327220003114E-01
 0.79582622826000E+01 0.76169659202087E-01
 0.23780826883000E+01 0.30192252202676E+00
 0.81433208183000E+00 0.72785027349547E+00
 p    1 1.00
 0.28887547253000E+00 0.10000000000000E+01
 p    1 1.00
 0.10056823671000E+00 0.10000000000000E+01
 d    1 1.00
 0.10970000000000E+01 0.10000000000000E+01
 d    1 1.00
 0.31800000000000E+00 0.10000000000000E+01
 f    1 1.00
 0.76100000000000E+00 0.10000000000000E+01
 
    2 0
 s    6 1.00
 0.13575349682000E+05 0.60645503603591E-03
 0.20352333680000E+04 0.46979088884982E-02
 0.46322562359000E+03 0.24332477647552E-01
 0.13120019598000E+03 0.97399968307759E-01
 0.42853015891000E+02 0.30195584253780E+00
 0.15584185766000E+02 0.66233609137875E+00
 s    2 1.00
 0.62067138508000E+01 0.65595308539952E+00
 0.25764896527000E+01 0.37585633285142E+00
 s    1 1.00
 0.57696339419000E+00 0.10000000000000E+01
 s    1 1.00
 0.22972831358000E+00 0.10000000000000E+01
 s    1 1.00
 0.95164440028000E-01 0.10000000000000E+01
 p    4 1.00
 0.34697232244000E+02 0.11327220003114E-01
 0.79582622826000E+01 0.76169659202087E-01
 0.23780826883000E+01 0.30192252202676E+00
 0.81433208183000E+00 0.72785027349547E+00
 p    1 1.00
 0.28887547253000E+00 0.10000000000000E+01
 p    1 1.00
 0.10056823671000E+00 0.10000000000000E+01
 d    1 1.00
 0.10970000000000E+01 0.10000000000000E+01
 d    1 1.00
 0.31800000000000E+00 0.10000000000000E+01
 f    1 1.00
 0.76100000000000E+00 0.10000000000000E+01
 
    3 0
 s    6 1.00
 0.27032382631000E+05 0.57227335211155E-03
 0.40523871392000E+04 0.44353233492995E-02
 0.92232722710000E+03 0.23020107706038E-01
 0.26124070989000E+03 0.92822490667928E-01
 0.85354641351000E+02 0.29378500009671E+00
 0.31035035245000E+02 0.67401604501641E+00
 s    2 1.00
 0.12260860728000E+02 0.63839937025506E+00
 0.49987076005000E+01 0.39534587125718E+00
 s    1 1.00
 0.11703108158000E+01 0.10000000000000E+01
 s    1 1.00
 0.46474740994000E+00 0.10000000000000E+01
 s    1 1.00
 0.18504536357000E+00 0.10000000000000E+01
 p    4 1.00
 0.63274954801000E+02 0.12018332222616E-01
 0.14627049379000E+02 0.83005421790056E-01
 0.44501223456000E+01 0.31991743925964E+00
 0.15275799647000E+01 0.70715542916104E+00
 p    1 1.00
 0.52935117943000E+00 0.10000000000000E+01
 p    1 1.00
 0.17478421270000E+00 0.10000000000000E+01
 d    1 1.00
 0.23140000000000E+01 0.10000000000000E+01
 d    1 1.00
 0.64500000000000E+00 0.10000000000000E+01
 f    1 1.00
 0.14280000000000E+01 0.10000000000000E+01
 
    4 0
 s    6 1.00
 0.27032382631000E+05 0.57227335211155E-03
 0.40523871392000E+04 0.44353233492995E-02
 0.92232722710000E+03 0.23020107706038E-01
 0.26124070989000E+03 0.92822490667928E-01
 0.85354641351000E+02 0.29378500009671E+00
 0.31035035245000E+02 0.67401604501641E+00
 s    2 1.00
 0.12260860728000E+02 0.63839937025506E+00
 0.49987076005000E+01 0.39534587125718E+00
 s    1 1.00
 0.11703108158000E+01 0.10000000000000E+01
 s    1 1.00
 0.46474740994000E+00 0.10000000000000E+01
 s    1 1.00
 0.18504536357000E+00 0.10000000000000E+01
 p    4 1.00
 0.63274954801000E+02 0.12018332222616E-01
 0.14627049379000E+02 0.83005421790056E-01
 0.44501223456000E+01 0.31991743925964E+00
 0.15275799647000E+01 0.70715542916104E+00
 p    1 1.00
 0.52935117943000E+00 0.10000000000000E+01
 p    1 1.00
 0.17478421270000E+00 0.10000000000000E+01
 d    1 1.00
 0.23140000000000E+01 0.10000000000000E+01
 d    1 1.00
 0.64500000000000E+00 0.10000000000000E+01
 f    1 1.00
 0.14280000000000E+01 0.10000000000000E+01
 
    5 0
 s    6 1.00
 0.27032382631000E+05 0.57227335211155E-03
 0.40523871392000E+04 0.44353233492995E-02
 0.92232722710000E+03 0.23020107706038E-01
 0.26124070989000E+03 0.92822490667928E-01
 0.85354641351000E+02 0.29378500009671E+00
 0.31035035245000E+02 0.67401604501641E+00
 s    2 1.00
 0.12260860728000E+02 0.63839937025506E+00
 0.49987076005000E+01 0.39534587125718E+00
 s    1 1.00
 0.11703108158000E+01 0.10000000000000E+01
 s    1 1.00
 0.46474740994000E+00 0.10000000000000E+01
 s    1 1.00
 0.18504536357000E+00 0.10000000000000E+01
 p    4 1.00
 0.63274954801000E+02 0.12018332222616E-01
 0.14627049379000E+02 0.83005421790056E-01
 0.44501223456000E+01 0.31991743925964E+00
 0.15275799647000E+01 0.70715542916104E+00
 p    1 1.00
 0.52935117943000E+00 0.10000000000000E+01
 p    1 1.00
 0.17478421270000E+00 0.10000000000000E+01
 d    1 1.00
 0.23140000000000E+01 0.10000000000000E+01
 d    1 1.00
 0.64500000000000E+00 0.10000000000000E+01
 f    1 1.00
 0.14280000000000E+01 0.10000000000000E+01
 
    6 0
 s    3 1.00
 0.34061341000000E+02 0.25439307208879E-01
 0.51235746000000E+01 0.19008594890375E+00
 0.11646626000000E+01 0.85244113011042E+00
 s    1 1.00
 0.32723041000000E+00 0.10000000000000E+01
 s    1 1.00
 0.10307241000000E+00 0.10000000000000E+01
 p    1 1.00
 0.80000000000000E+00 0.10000000000000E+01
 
    7 0
 s    3 1.00
 0.34061341000000E+02 0.25439307208879E-01
 0.51235746000000E+01 0.19008594890375E+00
 0.11646626000000E+01 0.85244113011042E+00
 s    1 1.00
 0.32723041000000E+00 0.10000000000000E+01
 s    1 1.00
 0.10307241000000E+00 0.10000000000000E+01
 p    1 1.00
 0.80000000000000E+00 0.10000000000000E+01
 
    8 0
 s    3 1.00
 0.34061341000000E+02 0.25439307208879E-01
 0.51235746000000E+01 0.19008594890375E+00
 0.11646626000000E+01 0.85244113011042E+00
 s    1 1.00
 0.32723041000000E+00 0.10000000000000E+01
 s    1 1.00
 0.10307241000000E+00 0.10000000000000E+01
 p    1 1.00
 0.80000000000000E+00 0.10000000000000E+01
 
    9 0
 s    3 1.00
 0.34061341000000E+02 0.25439307208879E-01
 0.51235746000000E+01 0.19008594890375E+00
 0.11646626000000E+01 0.85244113011042E+00
 s    1 1.00
 0.32723041000000E+00 0.10000000000000E+01
 s    1 1.00
 0.10307241000000E+00 0.10000000000000E+01
 p    1 1.00
 0.80000000000000E+00 0.10000000000000E+01
 
[MO]
 Sym=     1a   
 Ene= -.19196642076732E+02
 Spin= Alpha
 Occup= 2.000000
     1 0.11339118029742E-04
     2 -.54805631369842E-04
     3 -.35122481871260E-05
     4 0.36607119567630E-02
     5 -.12858361370167E-02
     6 0.69741283159756E-04
     7 0.65978594162183E-04
     8 0.44773014875778E-04
     9 0.23434196230273E-02
    10 -.30156724774117E-03
    11 0.54917800662506E-04
    12 0.10701663282827E-02
    13 -.45286462742153E-03
    14 -.20270484016475E-03
    15 0.36533467178975E-04
    16 -.21248939280831E-05
    17 -.34408573250892E-04
    18 0.15641734203584E-05
    19 0.11187283990410E-04
    20 0.37777907302096E-04
    21 0.37550378836171E-03
    22 -.40945537982230E-03
    23 0.33951591460583E-04
    24 0.45973477436586E-03
    25 0.29284402724347E-03
    26 -.40159149294138E-03
    27 0.16496660813902E-05
    28 -.30522654669710E-04
    29 -.11626936879036E-04
    30 -.11654307349552E-05
    31 0.53821482132784E-04
    32 0.34817531686246E-04
    33 -.10478285639433E-05
    34 -.12871043715651E-04
    35 -.19218358947272E-04
    36 0.13574968344972E-04
    37 0.41989133739282E-04
    38 -.22906783033228E-03
    39 -.36122436264708E-03
    40 0.27731977076979E-02
    41 -.33547504646153E-02
    42 -.20437694796578E-04
    43 -.66970942776405E-04
    44 -.42916767371222E-04
    45 0.57608236761530E-02
    46 -.45282413081287E-02
    47 -.22076759708550E-02
    48 -.21013694739520E-02
    49 0.44600029258253E-02
    50 0.25191672214076E-02
    51 0.54470844269654E-04
    52 0.57469867659647E-04
    53 -.11194071192930E-03
    54 -.20641041857017E-03
    55 -.99787109138983E-04
    56 0.14925110525795E-03
    57 -.49973045893523E-03
    58 0.83052554842777E-03
    59 -.33079508949254E-03
    60 -.22413531591178E-02
    61 -.13478387893551E-02
    62 0.83218861517357E-03
    63 0.42912121019562E-04
    64 0.47724036581863E-04
    65 0.99847458044616E-04
    66 0.21573138086278E-04
    67 -.86951895025730E-04
    68 -.27349942912402E-04
    69 -.79145789881341E-04
    70 0.22923381051090E-04
    71 -.10660947922859E-03
    72 0.66488735459434E-04
    73 -.39243778524274E-04
    74 -.43019412691549E-04
    75 -.25629389813295E-03
    76 0.19675951854608E-02
    77 -.25104451103503E-02
    78 -.66387957036137E-04
    79 -.62438506505398E-04
    80 -.44622226028106E-04
    81 0.44251346068629E-03
    82 -.33504558985986E-03
    83 -.16086841176610E-03
    84 0.90662719395944E-03
    85 -.23633236001299E-03
    86 -.58254103060811E-04
    87 0.35009503965358E-04
    88 -.18061618516349E-05
    89 -.33203342113723E-04
    90 0.32907498307778E-05
    91 0.11771447940714E-04
    92 0.36784083915181E-04
    93 -.19582664153981E-03
    94 0.71278418907383E-04
    95 0.12454822263243E-03
    96 -.63062945868161E-04
    97 -.78986915783699E-04
    98 -.76714112317168E-04
    99 0.32732540058002E-05
   100 -.56670745704216E-05
   101 -.15387370111966E-04
   102 -.60867380759990E-05
   103 0.92152989340719E-05
   104 0.57339756311476E-05
   105 0.16952069972433E-05
   106 -.16121205502580E-05
   107 0.14910347708035E-04
   108 -.25019038720822E-05
   109 0.43508309162485E+00
   110 0.63951169113305E+00
   111 0.36545529433952E-01
   112 -.29695331379319E-01
   113 0.11555290554652E-01
   114 0.82765136923406E-04
   115 0.16660993572119E-02
   116 0.10218317275458E-02
   117 0.16878092775741E-02
   118 -.45511753308363E-02
   119 -.26100001609474E-02
   120 -.46896899861141E-03
   121 0.62023594122629E-03
   122 0.33238946332773E-03
   123 0.77620286556013E-04
   124 -.19800086246274E-05
   125 -.75640277931385E-04
   126 -.68660752203812E-04
   127 -.21095544463907E-04
   128 0.71207751530063E-04
   129 -.38211024596947E-03
   130 -.51500632038046E-04
   131 0.43361087800751E-03
   132 0.48571268760428E-03
   133 0.18258478490373E-03
   134 -.45239814331627E-03
   135 -.59434778650727E-04
   136 0.25061593651850E-04
   137 0.41393918199679E-04
   138 0.59105461518086E-04
   139 -.46848222298205E-04
   140 -.38839442200773E-04
   141 0.20634661656322E-04
   142 0.13224566080197E-04
   143 -.16696326768956E-04
   144 0.22433141842003E-04
   145 -.17584848750293E-04
   146 0.69730401785532E-06
   147 -.29811398910982E-03
   148 0.13136883850980E-02
   149 -.18843929304247E-03
   150 -.56575877962696E-04
   151 0.20456763386769E-04
   152 0.63421970306558E-05
   153 0.54721630795816E-03
   154 -.27714560991120E-03
   155 -.11021312979679E-03
   156 -.84420463258246E-03
   157 -.31699382047905E-04
   158 -.92313789651284E-04
   159 0.17184853367926E-04
   160 -.39481731229223E-05
   161 -.13236680245003E-04
   162 -.28649780193289E-05
   163 0.20009304254013E-05
   164 0.10523047279904E-04
   165 -.20160411646212E-04
   166 0.27155970387722E-05
   167 0.17444814607440E-04
   168 -.18036458777878E-04
   169 -.14608809258298E-04
   170 -.22648666407157E-04
   171 0.39972802288702E-05
   172 0.23872915460825E-05
   173 -.18609961291727E-05
   174 -.32236336192157E-05
   175 -.42143026972341E-05
   176 -.15759160047610E-05
   177 -.21392805709061E-05
   178 0.10114149897435E-05
   179 0.40727043151775E-05
   180 -.15877818587724E-05
   181 -.49657064599765E-04
   182 -.38952370457092E-03
   183 0.87670190402449E-03
   184 0.31454488926932E-04
   185 -.14329835826134E-03
   186 -.54343359918704E-04
   187 -.45457313284874E-04
   188 -.37439457279617E-03
   189 0.84208926529954E-03
   190 0.35859399087515E-04
   191 -.12019194875299E-03
   192 -.93232576479372E-04
   193 0.82560015112521E-03
   194 0.12990943854774E-02
   195 -.75278852586234E-03
   196 -.90850279734752E-03
   197 -.26091094959902E-03
   198 -.24451568506538E-03
   199 0.11179382475568E-04
   200 -.11665791046712E-05
   201 -.34601270730440E-03
   202 -.57369553836689E-04
   203 0.11667620750526E-03
   204 0.64382551783013E-04
 Sym=     2a   
 Ene= -.19140583601830E+02
 Spin= Alpha
 Occup= 2.000000
     1 0.19339493439053E-04
     2 -.94823508076952E-04
     3 0.39157933676602E-03
     4 0.19313925410911E-02
     5 -.12488297423255E-02
     6 0.85627264140369E-04
     7 0.14549936521577E-03
     8 0.94183643042030E-04
     9 0.21196309570046E-02
    10 -.28871939970450E-03
    11 0.50812583286696E-04
    12 -.92304093718319E-03
    13 0.78045977937778E-03
    14 0.39673805572462E-03
    15 0.61237935345714E-04
    16 -.16145967162204E-04
    17 -.45091968183509E-04
    18 0.25903972716984E-04
    19 0.29548370489553E-04
    20 0.39540605360782E-04
    21 0.12527738388309E-03
    22 -.35025435448550E-03
    23 0.22497697060240E-03
    24 0.72781718312860E-03
    25 0.40523860034557E-03
    26 -.49347803813239E-03
    27 -.94118628572400E-05
    28 -.25142589647994E-04
    29 -.14981514163514E-05
    30 0.75737589124018E-05
    31 0.44914208833433E-04
    32 0.26436036877116E-04
    33 0.50535801738146E-05
    34 -.11181885083455E-04
    35 -.24426055832586E-04
    36 0.11421651129504E-04
    37 0.41523601127318E-04
    38 -.25181063215002E-03
    39 0.88868935523464E-03
    40 0.40990382223080E-02
    41 -.25472827214103E-02
    42 0.16538181733692E-03
    43 0.60395563992110E-03
    44 0.38466543884966E-03
    45 0.37686472888198E-02
    46 0.70704866655814E-02
    47 0.46631216097960E-02
    48 -.13169751487614E-02
    49 -.47788267287851E-02
    50 -.30393151944100E-02
    51 -.47787207957814E-04
    52 0.87621902989636E-04
    53 -.39834695031822E-04
    54 0.12402248416628E-03
    55 0.84951134543655E-04
    56 0.16921608123614E-03
    57 -.17819918652215E-02
    58 0.15870504081444E-02
    59 0.19494145707713E-03
    60 0.12782631237174E-02
    61 0.67491919877813E-03
    62 0.18138888425126E-02
    63 0.48625400887953E-04
    64 -.29246290497559E-04
    65 -.65152017845312E-04
    66 -.52966222038617E-04
    67 0.50544739141272E-04
    68 0.38860028297145E-04
    69 -.12271599052568E-04
    70 -.11306722955923E-04
    71 0.48550576166893E-04
    72 -.17263579491908E-04
    73 0.43508170927819E+00
    74 0.63950565388169E+00
    75 0.36545594617718E-01
    76 -.31180532740979E-01
    77 0.11536713778929E-01
    78 -.72751306792628E-03
    79 -.18173051097992E-02
    80 -.11771088210406E-02
    81 0.22162496824218E-02
    82 0.53400841306487E-02
    83 0.34666151841281E-02
    84 -.36299246291586E-03
    85 -.48371629659895E-03
    86 -.32902007113389E-03
    87 -.90096562919131E-04
    88 0.90042254433509E-04
    89 0.54308485622166E-07
    90 0.91500219905765E-04
    91 0.52985602949936E-04
    92 0.12001759399110E-03
    93 0.38418202716170E-03
    94 -.42841796800570E-03
    95 0.44235940843999E-04
    96 -.43502499001922E-03
    97 -.26631021985342E-03
    98 -.62065113663633E-03
    99 -.18552343252616E-04
   100 0.32856167500854E-05
   101 -.23438502173681E-04
   102 0.22051837282536E-04
   103 -.13411082105487E-04
   104 -.82829792764316E-05
   105 0.28387431103191E-05
   106 0.90029646647650E-05
   107 0.39729029767108E-04
   108 0.25458224979625E-04
   109 0.36773402225715E-04
   110 0.69247674603229E-04
   111 -.33504998099115E-03
   112 0.19243078490700E-02
   113 -.15819101563930E-02
   114 -.45649955852641E-04
   115 0.26945991706568E-04
   116 0.12119616346564E-04
   117 -.26191694069577E-05
   118 0.53498091131646E-03
   119 0.32527145005774E-03
   120 0.97482846957231E-03
   121 0.62940830960559E-03
   122 0.47618492129506E-03
   123 0.48636998260181E-04
   124 -.13129199112022E-04
   125 -.35507799148160E-04
   126 -.80121144345849E-05
   127 0.58947342179701E-05
   128 0.24478842555371E-04
   129 -.22674286179061E-03
   130 0.12055575706529E-03
   131 0.10618710472532E-03
   132 -.43273356259758E-04
   133 -.63593089759331E-04
   134 0.31340384586175E-05
   135 0.18939759356465E-04
   136 0.64315866877325E-06
   137 0.11217524441893E-04
   138 -.12999646013361E-04
   139 0.11108046331229E-05
   140 0.50589062599766E-05
   141 -.12410707625765E-04
   142 -.19736925353401E-05
   143 -.20108794574780E-04
   144 -.36599629420815E-05
   145 -.29537154689966E-03
   146 -.37801840247816E-03
   147 -.54194816168335E-03
   148 0.18098426282387E-02
   149 -.60592267631002E-04
   150 -.64264060137793E-04
   151 0.65223732123890E-04
   152 0.31469588893601E-04
   153 0.59664457210008E-03
   154 -.56131056341492E-03
   155 -.27161244853862E-03
   156 0.35733318655618E-03
   157 0.15172089403998E-03
   158 0.12302848748438E-03
   159 -.77204436333402E-05
   160 0.32006367248788E-05
   161 0.45198069084613E-05
   162 0.14782662033315E-05
   163 -.90516120809941E-06
   164 -.74561633900127E-06
   165 0.70328476742648E-04
   166 -.12105741463498E-04
   167 -.58222735279150E-04
   168 -.57041749077477E-04
   169 -.15860732350814E-04
   170 0.37143738017164E-04
   171 0.61728912472823E-05
   172 0.20312107207589E-05
   173 0.12855599410551E-05
   174 -.38700885893223E-05
   175 -.33040543840989E-05
   176 -.24070485009024E-06
   177 -.44117140786596E-05
   178 0.57889923515298E-06
   179 -.14840548003196E-05
   180 -.67216873142374E-06
   181 -.40105695824033E-04
   182 -.70686981330584E-03
   183 0.10731626226624E-03
   184 -.47522736981162E-04
   185 -.18519453535600E-03
   186 -.95348057925456E-04
   187 -.36750459614963E-04
   188 -.68346667021464E-03
   189 0.10879555068103E-03
   190 -.42157209632699E-04
   191 -.16989043932549E-03
   192 -.12144465072062E-03
   193 0.15564753841914E-03
   194 -.51529287797936E-03
   195 0.10284800719658E-03
   196 0.82272174527193E-04
   197 -.15506728240394E-04
   198 -.15652692216608E-05
   199 0.50904956851344E-04
   200 -.48446333600668E-03
   201 0.25966578919596E-03
   202 -.13751149313953E-03
   203 0.13069367993742E-03
   204 0.67179236812891E-04
 Sym=     3a   
 Ene= -.19131084672932E+02
 Spin= Alpha
 Occup= 2.000000
     1 0.21983653308086E-04
     2 -.11748284578301E-03
     3 -.16481681011122E-02
     4 0.49799831816463E-02
     5 -.15881371536386E-01
     6 0.58745697803365E-04
     7 -.21770485509786E-03
     8 -.12381758774308E-03
     9 -.48315786716204E-02
    10 0.53025633507456E-02
    11 0.26971049626802E-02
    12 -.18730390274125E-02
    13 -.15332678773426E-02
    14 -.10975638446107E-02
    15 0.32735064837347E-04
    16 0.60257842422629E-04
    17 -.92992907259977E-04
    18 -.27731227712892E-03
    19 -.14701285787287E-03
    20 0.10965731627784E-03
    21 -.38030940033004E-03
    22 0.10110660464516E-02
    23 -.63075664612151E-03
    24 -.13183691956875E-02
    25 -.67715306271849E-03
    26 0.15223886756273E-02
    27 0.42774151751074E-04
    28 -.27471051836724E-04
    29 -.89807342527396E-04
    30 -.10793487007674E-03
    31 0.65412569055803E-04
    32 0.23186626464668E-04
    33 0.50547323479559E-04
    34 -.28556285463602E-04
    35 0.97302567197251E-04
    36 -.13266429988319E-03
    37 -.70188893689989E-06
    38 0.31538824271196E-05
    39 0.77258817694001E-03
    40 -.15090071239155E-02
    41 0.83127459079163E-02
    42 0.13078507992070E-04
    43 0.49396902461426E-04
    44 0.29713268454638E-04
    45 -.20297818031658E-02
    46 -.72701695544585E-03
    47 -.62783096578980E-03
    48 -.45144830546358E-02
    49 0.66073185528770E-03
    50 -.32416543072618E-04
    51 0.26962421443671E-04
    52 -.14754820190019E-04
    53 -.12207601253652E-04
    54 -.12381131937348E-03
    55 -.72726454902086E-04
    56 -.30121822657956E-04
    57 0.30517708057357E-03
    58 -.56784031274390E-03
    59 0.26266323217033E-03
    60 0.13130574515845E-02
    61 0.76813668398922E-03
    62 -.64322898351762E-03
    63 0.47738725189865E-04
    64 0.71705689453886E-06
    65 0.36714847870912E-05
    66 -.39247437324422E-04
    67 0.26932724605666E-05
    68 0.11714078504968E-04
    69 -.24800783485810E-04
    70 -.36553052365209E-05
    71 -.16639892242343E-04
    72 -.17104789254036E-04
    73 0.28333823124024E-03
    74 0.47481195904123E-03
    75 -.56038001992164E-03
    76 0.20527983381233E-02
    77 -.13720198183814E-02
    78 0.14265874349455E-03
    79 0.17450763329929E-04
    80 0.25743669323118E-04
    81 -.11197108380322E-02
    82 -.36649562639628E-03
    83 -.33731851939180E-03
    84 0.56230842042967E-03
    85 0.27773322841592E-03
    86 0.22499404524108E-03
    87 -.16370506621989E-04
    88 0.14639803005710E-04
    89 0.17307036162783E-05
    90 -.10053576137001E-04
    91 -.77022361096647E-05
    92 0.11545624217690E-04
    93 0.10339509319872E-03
    94 -.57052774128195E-04
    95 -.46342319070529E-04
    96 0.15420628645658E-03
    97 0.11410447695899E-03
    98 0.25098320608695E-04
    99 0.79137941383499E-05
   100 0.44124148041432E-05
   101 0.73440940376687E-05
   102 -.49839071584520E-05
   103 -.67924073729276E-05
   104 -.24564466989833E-05
   105 -.56335618335218E-05
   106 0.87253170473331E-06
   107 -.73966894018436E-05
   108 -.30075871977357E-05
   109 0.11773656207276E-04
   110 0.44320230069089E-04
   111 -.33248202410039E-03
   112 0.17548684758283E-02
   113 0.12130320983367E-02
   114 0.44714525090115E-04
   115 -.51801262410843E-04
   116 -.28252081353266E-04
   117 -.78213892362189E-03
   118 0.75799468694033E-03
   119 0.39189241176895E-03
   120 -.18480116078298E-03
   121 0.39230250379826E-03
   122 0.22426307276318E-03
   123 0.18762137087843E-04
   124 -.10425572948466E-04
   125 -.83365641393760E-05
   126 0.15513139128545E-05
   127 0.39599251167021E-05
   128 -.24457520390302E-05
   129 -.90019331284107E-04
   130 0.79008314524823E-04
   131 0.11011016759284E-04
   132 -.11682892054746E-03
   133 -.80753513834835E-04
   134 0.54073640074059E-04
   135 0.51184403838365E-05
   136 0.35162799552985E-05
   137 0.74208336425074E-05
   138 -.23593895989539E-05
   139 -.54511824094856E-05
   140 -.20013521500276E-05
   141 -.45077187832692E-05
   142 0.73359780470518E-06
   143 -.79547409345908E-05
   144 -.91162183461243E-06
   145 0.43510538158002E+00
   146 0.63950097203611E+00
   147 0.36574854361003E-01
   148 -.29114976027248E-01
   149 0.10981853529081E-01
   150 0.20877705146766E-02
   151 -.48901043652574E-03
   152 -.74346431526989E-04
   153 -.51224431663043E-02
   154 0.24101828278599E-02
   155 0.91796184816751E-03
   156 0.10998843426124E-02
   157 -.19465850708792E-03
   158 0.11281254809929E-05
   159 0.31772772216448E-04
   160 0.39109296859951E-04
   161 -.70882069076399E-04
   162 -.47155443583254E-04
   163 -.86029922949823E-05
   164 0.11375004011389E-03
   165 -.19076079754519E-03
   166 -.24321250024786E-03
   167 0.43397329779306E-03
   168 0.39984617896505E-03
   169 0.12417974387666E-03
   170 -.67304605129942E-03
   171 0.38872156697868E-04
   172 0.77387768400110E-06
   173 -.45575202780406E-05
   174 -.64348952400546E-04
   175 0.13270107708067E-04
   176 0.19701450142325E-05
   177 0.12196481515473E-04
   178 -.14308373572685E-04
   179 0.41444100760870E-05
   180 -.81057700675715E-04
   181 0.41479614873269E-04
   182 0.14881406774608E-02
   183 0.17239234928264E-02
   184 0.14565527019814E-03
   185 0.14779959634385E-03
   186 0.12745796984679E-03
   187 0.39373197699051E-04
   188 0.14678498976421E-02
   189 0.17372851955179E-02
   190 0.15081889003482E-03
   191 0.16938551690743E-03
   192 0.86548916544467E-04
   193 0.18494094589045E-04
   194 0.28010930553098E-03
   195 0.41150116231571E-03
   196 -.13730951575698E-03
   197 0.15390488322446E-04
   198 -.36555975506396E-05
   199 0.86646045591460E-03
   200 0.14909745882421E-02
   201 -.17277514550498E-02
   202 -.61151362158027E-03
   203 -.78118420056097E-03
   204 -.54124481113022E-03
 Sym=     4a   
 Ene= -.10324511116839E+02
 Spin= Alpha
 Occup= 2.000000
     1 0.64112883948303E-03
     2 0.94340107099288E-03
     3 -.83153698799642E-03
     4 0.98561800083985E-02
     5 -.89452543334747E-02
     6 0.44353888690253E-04
     7 0.45170413476794E-04
     8 0.30774562346497E-04
     9 0.55670440636295E-02
    10 0.64197202315318E-03
    11 0.93342855590486E-03
    12 -.31365043561844E-02
    13 -.10553819200415E-02
    14 -.93332767151252E-03
    15 -.50042187871573E-04
    16 0.42984212079569E-04
    17 0.70579757920034E-05
    18 -.35349127601004E-04
    19 -.26027144816979E-04
    20 0.33242681527699E-04
    21 0.16461131361565E-03
    22 -.28392766632445E-03
    23 0.11931635270880E-03
    24 0.39699613469792E-03
    25 0.22198036026359E-03
    26 -.37510843863900E-03
    27 -.15908773610226E-03
    28 0.75344154088729E-04
    29 0.28850276059769E-04
    30 0.11188084608051E-03
    31 -.13581756174745E-03
    32 -.12710593990027E-03
    33 0.10155774930621E-03
    34 0.34732771597681E-04
    35 0.88399232836702E-04
    36 -.23024236211015E-04
    37 0.46693803109324E+00
    38 0.60803243401706E+00
    39 0.38085839183137E-01
    40 -.14643999719029E-01
    41 0.12139134646341E-01
    42 0.65421600081130E-03
    43 0.32065276444643E-03
    44 0.25956819150338E-03
    45 0.10950066876516E-01
    46 0.60853919291668E-02
    47 0.47516953441578E-02
    48 -.65181572315250E-02
    49 -.76735555830148E-03
    50 -.10885653731470E-02
    51 0.10210347724791E-04
    52 0.58019039885506E-03
    53 -.59040074657985E-03
    54 0.79062208220606E-04
    55 0.19346044961755E-03
    56 0.13395180441711E-02
    57 -.28449915764918E-02
    58 0.25771086089118E-02
    59 0.26788296757992E-03
    60 -.62991719466440E-03
    61 -.58888457159912E-03
    62 0.24336282592758E-02
    63 -.28399525471725E-03
    64 0.10345989830540E-03
    65 -.66232886047928E-04
    66 0.41331519213810E-03
    67 -.27932623304420E-03
    68 -.15536635857213E-03
    69 -.32295575237016E-04
    70 0.14052021371055E-03
    71 0.24422709990163E-03
    72 0.45943898855105E-03
    73 -.80561701961336E-04
    74 -.31705023370250E-03
    75 0.34174885123276E-02
    76 -.13284986077124E-01
    77 -.14109267214861E-02
    78 -.22220628886597E-03
    79 -.52418362039731E-03
    80 -.34083600271943E-03
    81 0.30136330891092E-02
    82 0.68692918337869E-02
    83 0.44743549138411E-02
    84 0.14773862450753E-02
    85 -.27679182593540E-03
    86 -.29291024611309E-04
    87 -.11748388828419E-04
    88 -.91605983197010E-05
    89 0.20908987148120E-04
    90 0.32245352032894E-04
    91 0.14612370281102E-04
    92 -.27438043623330E-04
    93 0.76488766849792E-03
    94 -.86405179405798E-03
    95 0.99164125560070E-04
    96 -.10083075171735E-02
    97 -.62175628957136E-03
    98 -.12884624023432E-02
    99 -.91131769004856E-04
   100 0.28941715245950E-04
   101 -.55623696256602E-04
   102 0.98278803161950E-04
   103 -.75927137130428E-04
   104 -.54215827123343E-04
   105 0.23987295080851E-04
   106 0.37097751525196E-04
   107 0.12884284671708E-03
   108 0.83186247043440E-04
   109 -.22611502597960E-04
   110 -.22272783886476E-03
   111 0.25369249420191E-02
   112 -.67659304187945E-02
   113 0.20830656608349E-02
   114 -.52359223248737E-03
   115 0.54254628133824E-03
   116 0.28064869253770E-03
   117 0.36079887244656E-02
   118 -.35222058340536E-02
   119 -.18020012263844E-02
   120 0.80040988021289E-03
   121 0.15963492486306E-02
   122 0.10468975159235E-02
   123 -.34116624743307E-04
   124 0.36680345564512E-04
   125 -.25637208212058E-05
   126 -.11340511079182E-03
   127 -.72013028486810E-04
   128 0.20309209056204E-04
   129 0.13198621277819E-03
   130 -.46448898811483E-03
   131 0.33250277533664E-03
   132 0.13691381891977E-02
   133 0.78321095522589E-03
   134 -.61235277376482E-03
   135 -.86182743004383E-04
   136 0.32274433525380E-04
   137 0.86202247545577E-04
   138 0.14334873254271E-03
   139 -.75015009672127E-04
   140 -.37840490055578E-04
   141 -.27722449435596E-04
   142 0.31714313293298E-04
   143 -.77811961139527E-04
   144 0.15194909357669E-03
   145 -.32208815763669E-06
   146 0.10327336430028E-04
   147 -.14380391974772E-03
   148 0.70373244200007E-03
   149 -.59459841192810E-03
   150 0.41253790730760E-04
   151 0.50547462019290E-04
   152 0.33853844174739E-04
   153 -.14714696247014E-03
   154 -.53992473215740E-03
   155 -.33608458073036E-03
   156 -.49303544241508E-03
   157 0.13273336263257E-03
   158 0.31320588120217E-04
   159 0.19686567149785E-04
   160 -.14595608357213E-04
   161 -.50909587925721E-05
   162 -.87700813042408E-05
   163 -.31992779453549E-05
   164 -.11349518669975E-04
   165 -.16024244994733E-03
   166 0.12968486786468E-03
   167 0.30557582082657E-04
   168 -.28162007114422E-04
   169 -.32847470988628E-04
   170 0.95801093909026E-04
   171 -.11092747693111E-04
   172 -.89955337622781E-05
   173 0.39737152513924E-05
   174 0.10641606513785E-04
   175 0.15405233694101E-04
   176 0.78094306032671E-05
   177 0.42408762256456E-05
   178 -.33364587022918E-05
   179 -.13140729058472E-04
   180 0.86160773188083E-05
   181 -.96364082615111E-04
   182 -.82953675079098E-03
   183 -.24159023150224E-03
   184 -.28053005568619E-03
   185 -.12050891434950E-03
   186 -.17589362640469E-03
   187 -.89904635379864E-04
   188 -.81190426651853E-03
   189 -.23944917190758E-03
   190 -.29374602050430E-03
   191 -.19051109433526E-03
   192 -.59944917099171E-04
   193 -.40543452313442E-03