[Molden Format]
[Title]
                                                                                
[Atoms] AU
 c     1    6 -.24269501688196E+01 -.86891866444081E+00 0.83788119775019E+00
 c     2    6 -.52600935602782E+00 0.22420646403828E+00 -.10449354184937E+01
 c     3    6 0.21391437523889E+01 0.26033628420808E+00 0.23149345544890E-01
 o     4    8 0.33499498361322E+01 0.21677954120184E+01 0.32660238167001E+00
 o     5    8 0.30182490107826E+01 -.20558304573144E+01 0.58421516401807E+00
 o     6    8 -.12311967439574E+01 0.26906860813472E+01 -.17652094985012E+01
 h     7    1 -.19759204049516E+01 -.28248861286466E+01 0.13016121493955E+01
 h     8    1 -.43050463707298E+01 -.79688757910470E+00 -.41287334019900E-02
 h     9    1 -.24507782679688E+01 0.25363180799460E+00 0.25676800948129E+01
 h    10    1 -.47378306310835E+00 -.99052545494244E+00 -.27266203131896E+01
 h    11    1 0.47181544337477E+01 -.18594661560851E+01 0.12449624927661E+01
 h    12    1 0.16418167333560E+00 0.37998583909284E+01 -.13452069726424E+01
[GTO]
    1 0
 s    6 1.00
 0.13575349682000E+05 0.60645503603591E-03
 0.20352333680000E+04 0.46979088884982E-02
 0.46322562359000E+03 0.24332477647552E-01
 0.13120019598000E+03 0.97399968307759E-01
 0.42853015891000E+02 0.30195584253780E+00
 0.15584185766000E+02 0.66233609137875E+00
 s    2 1.00
 0.62067138508000E+01 0.65595308539952E+00
 0.25764896527000E+01 0.37585633285142E+00
 s    1 1.00
 0.57696339419000E+00 0.10000000000000E+01
 s    1 1.00
 0.22972831358000E+00 0.10000000000000E+01
 s    1 1.00
 0.95164440028000E-01 0.10000000000000E+01
 p    4 1.00
 0.34697232244000E+02 0.11327220003114E-01
 0.79582622826000E+01 0.76169659202087E-01
 0.23780826883000E+01 0.30192252202676E+00
 0.81433208183000E+00 0.72785027349547E+00
 p    1 1.00
 0.28887547253000E+00 0.10000000000000E+01
 p    1 1.00
 0.10056823671000E+00 0.10000000000000E+01
 d    1 1.00
 0.10970000000000E+01 0.10000000000000E+01
 d    1 1.00
 0.31800000000000E+00 0.10000000000000E+01
 f    1 1.00
 0.76100000000000E+00 0.10000000000000E+01
 
    2 0
 s    6 1.00
 0.13575349682000E+05 0.60645503603591E-03
 0.20352333680000E+04 0.46979088884982E-02
 0.46322562359000E+03 0.24332477647552E-01
 0.13120019598000E+03 0.97399968307759E-01
 0.42853015891000E+02 0.30195584253780E+00
 0.15584185766000E+02 0.66233609137875E+00
 s    2 1.00
 0.62067138508000E+01 0.65595308539952E+00
 0.25764896527000E+01 0.37585633285142E+00
 s    1 1.00
 0.57696339419000E+00 0.10000000000000E+01
 s    1 1.00
 0.22972831358000E+00 0.10000000000000E+01
 s    1 1.00
 0.95164440028000E-01 0.10000000000000E+01
 p    4 1.00
 0.34697232244000E+02 0.11327220003114E-01
 0.79582622826000E+01 0.76169659202087E-01
 0.23780826883000E+01 0.30192252202676E+00
 0.81433208183000E+00 0.72785027349547E+00
 p    1 1.00
 0.28887547253000E+00 0.10000000000000E+01
 p    1 1.00
 0.10056823671000E+00 0.10000000000000E+01
 d    1 1.00
 0.10970000000000E+01 0.10000000000000E+01
 d    1 1.00
 0.31800000000000E+00 0.10000000000000E+01
 f    1 1.00
 0.76100000000000E+00 0.10000000000000E+01
 
    3 0
 s    6 1.00
 0.13575349682000E+05 0.60645503603591E-03
 0.20352333680000E+04 0.46979088884982E-02
 0.46322562359000E+03 0.24332477647552E-01
 0.13120019598000E+03 0.97399968307759E-01
 0.42853015891000E+02 0.30195584253780E+00
 0.15584185766000E+02 0.66233609137875E+00
 s    2 1.00
 0.62067138508000E+01 0.65595308539952E+00
 0.25764896527000E+01 0.37585633285142E+00
 s    1 1.00
 0.57696339419000E+00 0.10000000000000E+01
 s    1 1.00
 0.22972831358000E+00 0.10000000000000E+01
 s    1 1.00
 0.95164440028000E-01 0.10000000000000E+01
 p    4 1.00
 0.34697232244000E+02 0.11327220003114E-01
 0.79582622826000E+01 0.76169659202087E-01
 0.23780826883000E+01 0.30192252202676E+00
 0.81433208183000E+00 0.72785027349547E+00
 p    1 1.00
 0.28887547253000E+00 0.10000000000000E+01
 p    1 1.00
 0.10056823671000E+00 0.10000000000000E+01
 d    1 1.00
 0.10970000000000E+01 0.10000000000000E+01
 d    1 1.00
 0.31800000000000E+00 0.10000000000000E+01
 f    1 1.00
 0.76100000000000E+00 0.10000000000000E+01
 
    4 0
 s    6 1.00
 0.27032382631000E+05 0.57227335211155E-03
 0.40523871392000E+04 0.44353233492995E-02
 0.92232722710000E+03 0.23020107706038E-01
 0.26124070989000E+03 0.92822490667928E-01
 0.85354641351000E+02 0.29378500009671E+00
 0.31035035245000E+02 0.67401604501641E+00
 s    2 1.00
 0.12260860728000E+02 0.63839937025506E+00
 0.49987076005000E+01 0.39534587125718E+00
 s    1 1.00
 0.11703108158000E+01 0.10000000000000E+01
 s    1 1.00
 0.46474740994000E+00 0.10000000000000E+01
 s    1 1.00
 0.18504536357000E+00 0.10000000000000E+01
 p    4 1.00
 0.63274954801000E+02 0.12018332222616E-01
 0.14627049379000E+02 0.83005421790056E-01
 0.44501223456000E+01 0.31991743925964E+00
 0.15275799647000E+01 0.70715542916104E+00
 p    1 1.00
 0.52935117943000E+00 0.10000000000000E+01
 p    1 1.00
 0.17478421270000E+00 0.10000000000000E+01
 d    1 1.00
 0.23140000000000E+01 0.10000000000000E+01
 d    1 1.00
 0.64500000000000E+00 0.10000000000000E+01
 f    1 1.00
 0.14280000000000E+01 0.10000000000000E+01
 
    5 0
 s    6 1.00
 0.27032382631000E+05 0.57227335211155E-03
 0.40523871392000E+04 0.44353233492995E-02
 0.92232722710000E+03 0.23020107706038E-01
 0.26124070989000E+03 0.92822490667928E-01
 0.85354641351000E+02 0.29378500009671E+00
 0.31035035245000E+02 0.67401604501641E+00
 s    2 1.00
 0.12260860728000E+02 0.63839937025506E+00
 0.49987076005000E+01 0.39534587125718E+00
 s    1 1.00
 0.11703108158000E+01 0.10000000000000E+01
 s    1 1.00
 0.46474740994000E+00 0.10000000000000E+01
 s    1 1.00
 0.18504536357000E+00 0.10000000000000E+01
 p    4 1.00
 0.63274954801000E+02 0.12018332222616E-01
 0.14627049379000E+02 0.83005421790056E-01
 0.44501223456000E+01 0.31991743925964E+00
 0.15275799647000E+01 0.70715542916104E+00
 p    1 1.00
 0.52935117943000E+00 0.10000000000000E+01
 p    1 1.00
 0.17478421270000E+00 0.10000000000000E+01
 d    1 1.00
 0.23140000000000E+01 0.10000000000000E+01
 d    1 1.00
 0.64500000000000E+00 0.10000000000000E+01
 f    1 1.00
 0.14280000000000E+01 0.10000000000000E+01
 
    6 0
 s    6 1.00
 0.27032382631000E+05 0.57227335211155E-03
 0.40523871392000E+04 0.44353233492995E-02
 0.92232722710000E+03 0.23020107706038E-01
 0.26124070989000E+03 0.92822490667928E-01
 0.85354641351000E+02 0.29378500009671E+00
 0.31035035245000E+02 0.67401604501641E+00
 s    2 1.00
 0.12260860728000E+02 0.63839937025506E+00
 0.49987076005000E+01 0.39534587125718E+00
 s    1 1.00
 0.11703108158000E+01 0.10000000000000E+01
 s    1 1.00
 0.46474740994000E+00 0.10000000000000E+01
 s    1 1.00
 0.18504536357000E+00 0.10000000000000E+01
 p    4 1.00
 0.63274954801000E+02 0.12018332222616E-01
 0.14627049379000E+02 0.83005421790056E-01
 0.44501223456000E+01 0.31991743925964E+00
 0.15275799647000E+01 0.70715542916104E+00
 p    1 1.00
 0.52935117943000E+00 0.10000000000000E+01
 p    1 1.00
 0.17478421270000E+00 0.10000000000000E+01
 d    1 1.00
 0.23140000000000E+01 0.10000000000000E+01
 d    1 1.00
 0.64500000000000E+00 0.10000000000000E+01
 f    1 1.00
 0.14280000000000E+01 0.10000000000000E+01
 
    7 0
 s    3 1.00
 0.34061341000000E+02 0.25439307208879E-01
 0.51235746000000E+01 0.19008594890375E+00
 0.11646626000000E+01 0.85244113011042E+00
 s    1 1.00
 0.32723041000000E+00 0.10000000000000E+01
 s    1 1.00
 0.10307241000000E+00 0.10000000000000E+01
 p    1 1.00
 0.80000000000000E+00 0.10000000000000E+01
 
    8 0
 s    3 1.00
 0.34061341000000E+02 0.25439307208879E-01
 0.51235746000000E+01 0.19008594890375E+00
 0.11646626000000E+01 0.85244113011042E+00
 s    1 1.00
 0.32723041000000E+00 0.10000000000000E+01
 s    1 1.00
 0.10307241000000E+00 0.10000000000000E+01
 p    1 1.00
 0.80000000000000E+00 0.10000000000000E+01
 
    9 0
 s    3 1.00
 0.34061341000000E+02 0.25439307208879E-01
 0.51235746000000E+01 0.19008594890375E+00
 0.11646626000000E+01 0.85244113011042E+00
 s    1 1.00
 0.32723041000000E+00 0.10000000000000E+01
 s    1 1.00
 0.10307241000000E+00 0.10000000000000E+01
 p    1 1.00
 0.80000000000000E+00 0.10000000000000E+01
 
   10 0
 s    3 1.00
 0.34061341000000E+02 0.25439307208879E-01
 0.51235746000000E+01 0.19008594890375E+00
 0.11646626000000E+01 0.85244113011042E+00
 s    1 1.00
 0.32723041000000E+00 0.10000000000000E+01
 s    1 1.00
 0.10307241000000E+00 0.10000000000000E+01
 p    1 1.00
 0.80000000000000E+00 0.10000000000000E+01
 
   11 0
 s    3 1.00
 0.34061341000000E+02 0.25439307208879E-01
 0.51235746000000E+01 0.19008594890375E+00
 0.11646626000000E+01 0.85244113011042E+00
 s    1 1.00
 0.32723041000000E+00 0.10000000000000E+01
 s    1 1.00
 0.10307241000000E+00 0.10000000000000E+01
 p    1 1.00
 0.80000000000000E+00 0.10000000000000E+01
 
   12 0
 s    3 1.00
 0.34061341000000E+02 0.25439307208879E-01
 0.51235746000000E+01 0.19008594890375E+00
 0.11646626000000E+01 0.85244113011042E+00
 s    1 1.00
 0.32723041000000E+00 0.10000000000000E+01
 s    1 1.00
 0.10307241000000E+00 0.10000000000000E+01
 p    1 1.00
 0.80000000000000E+00 0.10000000000000E+01
 
[MO]
 Sym=     1a   
 Ene= -.19194603758595E+02
 Spin= Alpha
 Occup= 2.000000
     1 -.14036990409610E-06
     2 0.52801493985108E-06
     3 0.22556596718297E-03
     4 -.14902766406811E-02
     5 0.33826161705578E-02
     6 0.19225125589773E-04
     7 -.13738698961033E-04
     8 -.18710672837934E-04
     9 -.36293124949786E-03
    10 -.33485534777010E-03
    11 0.76984424538682E-03
    12 0.11603890268312E-02
    13 0.93244833908443E-03
    14 0.18789882300941E-03
    15 0.13649653280715E-04
    16 -.20468582888263E-04
    17 0.68189296075475E-05
    18 -.35309616736761E-04
    19 0.62406447362308E-05
    20 0.19315038235391E-05
    21 -.21883243642679E-03
    22 0.18092746209493E-03
    23 0.37904974331862E-04
    24 -.74190905712447E-04
    25 0.70541443768018E-04
    26 0.20673300172915E-03
    27 0.58240727495102E-05
    28 0.51471669931206E-05
    29 -.91839355304112E-05
    30 -.11382951498740E-04
    31 -.17876668784696E-04
    32 0.18757364808133E-04
    33 0.35691379544547E-05
    34 0.10971019611799E-04
    35 -.64358223199485E-05
    36 0.18247786011962E-04
    37 0.75703884259357E-05
    38 -.35346273671195E-04
    39 -.43209463476165E-03
    40 0.56770301514535E-02
    41 -.46035232641835E-02
    42 0.79728747629282E-04
    43 0.80811982507279E-04
    44 -.28884470679587E-04
    45 0.20299497563171E-02
    46 -.11539931662371E-02
    47 0.15410710265017E-02
    48 0.80054015066927E-03
    49 -.15033126670169E-02
    50 -.85020784617144E-03
    51 0.20842127685604E-04
    52 0.23603016727103E-04
    53 -.44445144412707E-04
    54 0.61306829297608E-05
    55 0.38232059246745E-04
    56 -.79451683574656E-05
    57 0.61556057901748E-03
    58 -.89503708953992E-03
    59 0.27947651052244E-03
    60 0.16575243228289E-03
    61 0.72242503831854E-04
    62 0.11605331922889E-03
    63 0.34163190579402E-04
    64 -.27794408516841E-04
    65 -.12343226625610E-04
    66 -.38784680249191E-04
    67 0.43008857410462E-04
    68 0.23414256514833E-04
    69 -.70500496291038E-05
    70 -.57187453076284E-05
    71 -.68540802369030E-05
    72 0.26498521993901E-04
    73 0.40705550205798E-04
    74 -.22287837864789E-03
    75 -.33619795661028E-03
    76 0.24770617147160E-02
    77 -.32045817799288E-02
    78 -.39383140133399E-04
    79 -.72970715593843E-04
    80 -.34135569417771E-04
    81 0.40824695711752E-02
    82 -.61958925376525E-02
    83 0.23009299039192E-02
    84 -.83760057175632E-03
    85 0.65584942635975E-02
    86 -.10296953602731E-02
    87 -.62763564744039E-04
    88 0.21475255926845E-03
    89 -.15198899452441E-03
    90 -.15500334063089E-03
    91 0.73084383283910E-04
    92 -.10291926094411E-03
    93 -.15599926817881E-02
    94 0.21925588881617E-02
    95 -.63256620637367E-03
    96 -.16367403357773E-02
    97 -.29187192729807E-03
    98 -.94354349507245E-03
    99 -.20621616169381E-04
   100 -.67540815077589E-04
   101 -.76084079112464E-04
   102 0.51467371408612E-04
   103 -.25232176903912E-04
   104 0.42760842098927E-04
   105 -.23800570072225E-04
   106 0.11584768916545E-03
   107 0.59316661641638E-04
   108 -.96204962206229E-04
   109 -.42468800051430E-04
   110 -.44679906372138E-04
   111 -.27414825523235E-03
   112 0.20109077673974E-02
   113 -.27470822955438E-02
   114 -.84525369470963E-04
   115 -.59995095210636E-04
   116 -.17464761338064E-04
   117 0.33219950938350E-03
   118 -.44810760041561E-03
   119 0.12810346848613E-03
   120 0.70627158676856E-03
   121 -.56766607333668E-03
   122 0.42606756208613E-03
   123 0.24497773845057E-04
   124 0.12677012140903E-04
   125 -.37174785985960E-04
   126 0.45624651812680E-05
   127 0.33911553636738E-04
   128 -.45831273035239E-05
   129 -.16650393394520E-03
   130 0.58133857788396E-04
   131 0.10837007615681E-03
   132 -.21639873236596E-04
   133 -.14700706073376E-03
   134 0.40779724945661E-05
   135 0.57808958451222E-05
   136 0.10583364039479E-04
   137 0.16299585968175E-05
   138 -.54359542143605E-05
   139 0.13564689862708E-05
   140 0.53112512227294E-05
   141 -.23199314339630E-05
   142 -.15555541840012E-04
   143 -.74980701565259E-05
   144 0.89458932610074E-05
   145 0.43508644122369E+00
   146 0.63949644960476E+00
   147 0.36661975540215E-01
   148 -.30127472155115E-01
   149 0.12721562569516E-01
   150 0.57160332914651E-03
   151 0.18697850955096E-02
   152 0.55837547848388E-04
   153 0.20060038762069E-03
   154 -.55118579383400E-02
   155 0.60332014243705E-03
   156 -.34197121093901E-03
   157 0.10326548848765E-02
   158 -.28933281377556E-03
   159 0.21139907616077E-04
   160 0.62676856880092E-04
   161 -.83816764496169E-04
   162 -.62611549741249E-04
   163 0.63028545070101E-04
   164 -.41721854855304E-04
   165 -.27175623943234E-04
   166 -.47968881651010E-03
   167 0.50686444045334E-03
   168 0.41128969951186E-03
   169 -.33976401106501E-03
   170 0.27655879576265E-03
   171 -.54053871339760E-04
   172 -.26773120777133E-04
   173 0.84019202505064E-05
   174 0.70383010435834E-04
   175 0.82655016649131E-05
   176 -.48591757282573E-04
   177 0.21378680218052E-05
   178 0.27654409151575E-04
   179 0.37319398389575E-04
   180 -.17532646864982E-04
   181 -.13325722208231E-04
   182 0.19246949938665E-05
   183 -.25930950749794E-03
   184 0.11791952370292E-02
   185 0.53441359995708E-03
   186 -.40437930009835E-04
   187 0.42686069081076E-04
   188 -.27663881986256E-04
   189 0.38011636989262E-03
   190 -.48028665379851E-03
   191 0.25423189641606E-03
   192 -.74290373054259E-03
   193 0.12052884309267E-03
   194 -.15764066818370E-03
   195 0.12202821801699E-04
   196 0.36005847302817E-05
   197 -.15803406531981E-04
   198 -.59324191774359E-05
   199 0.12198022483251E-04
   200 -.17749926228200E-05
   201 -.35713320239422E-04
   202 0.16518356409782E-05
   203 0.34061484598444E-04
   204 -.12299965319399E-04
   205 -.14522734364981E-04
   206 -.19187202943152E-04
   207 -.19044753014176E-05
   208 0.52325397401693E-05
   209 0.21201857619146E-06
   210 0.31537028417999E-05
   211 -.42782712160722E-05
   212 0.14660765826160E-05
   213 -.59858110053638E-06
   214 -.27419175163204E-05
   215 -.17505293519301E-05
   216 -.23485144614974E-05
   217 0.15422996278603E-04
   218 -.11769673867935E-03
   219 0.14468096043409E-04
   220 0.60602304988018E-04
   221 0.14367065339310E-04
   222 0.16010157735022E-04
   223 0.50190105297112E-04
   224 0.40747438868694E-03
   225 0.20617764113847E-03
   226 0.92958207010441E-04
   227 0.15199445112980E-04
   228 0.31882966742486E-04
   229 -.17598195769181E-04
   230 -.55547782842777E-03
   231 -.61208199900937E-03
   232 0.96968054796454E-05
   233 0.17749762890081E-04
   234 0.73028781049654E-04
   235 -.37509618790276E-04
   236 -.48073326247388E-03
   237 0.69291578075724E-03
   238 0.15157444103103E-04
   239 -.18252035555693E-03
   240 -.17532508403478E-04
   241 0.82310802277259E-03
   242 0.11989959213443E-02
   243 -.55534687987293E-03
   244 -.89328958979620E-03
   245 -.11474808326078E-03
   246 -.33738175693886E-03
   247 0.11603438584672E-04
   248 -.20890536709950E-04
   249 -.32934087140814E-03
   250 -.12169845613261E-04
   251 0.13193430824888E-03
   252 -.19307582944685E-04
 Sym=     2a   
 Ene= -.19138442365748E+02
 Spin= Alpha
 Occup= 2.000000
     1 -.16105679443087E-05
     2 0.78119362231805E-05
     3 -.10233326953544E-03
     4 0.19165447770354E-05
     5 0.19538702110889E-02
     6 -.51385829325804E-04
     7 -.25073536185958E-04
     8 0.28711761666586E-04
     9 0.18224265662219E-03
    10 -.86184258476294E-04
    11 0.28641844755079E-04
    12 0.45692532806190E-03
    13 -.53516134223067E-03
    14 -.88407120249126E-03
    15 -.91113821426584E-05
    16 -.19965017507874E-05
    17 0.11107883893446E-04
    18 -.24564439499407E-04
    19 0.15005349650055E-04
    20 -.51882170587466E-05
    21 -.32697735723161E-04
    22 -.33669568018885E-04
    23 0.66367303742046E-04
    24 -.19526869459006E-04
    25 -.19971184307440E-03
    26 0.13898628194788E-03
    27 -.27495434898139E-05
    28 -.20246146239607E-06
    29 0.12152293493175E-04
    30 -.10006254635399E-04
    31 -.10008261844458E-04
    32 -.14311057802699E-04
    33 0.13695154325588E-04
    34 0.10279892400103E-04
    35 -.19929547972620E-05
    36 0.49614179896233E-05
    37 0.14031865793035E-04
    38 -.68729985477297E-04
    39 0.27528188979428E-03
    40 0.20167203027161E-02
    41 -.25318730793659E-02
    42 0.90846105938472E-04
    43 0.12209241038454E-03
    44 0.62614365906882E-05
    45 0.26229533768818E-02
    46 -.29381208902620E-03
    47 0.90427909691900E-03
    48 0.12407237166749E-04
    49 0.23547235488366E-02
    50 -.27832736591429E-03
    51 0.44617916191728E-04
    52 0.17245334881893E-04
    53 -.61863251073620E-04
    54 0.23378991637713E-04
    55 0.73398429175418E-04
    56 0.31109030722798E-05
    57 0.71692332958722E-03
    58 -.10095308625551E-02
    59 0.29260753296786E-03
    60 0.25086058476577E-03
    61 0.13997553205225E-03
    62 0.38621866090261E-03
    63 0.16484464112900E-04
    64 -.48555921749132E-04
    65 -.69222353271870E-05
    66 -.35866147056878E-04
    67 0.39886632578129E-04
    68 0.87036450095240E-05
    69 0.13749917659418E-04
    70 0.25257972466603E-04
    71 0.58350823918038E-06
    72 0.80547129842681E-05
    73 0.41319031198087E-04
    74 -.25100172855796E-03
    75 0.96618687262373E-03
    76 0.34107707690933E-02
    77 -.29667172988943E-02
    78 0.32106464685352E-03
    79 0.64642260591558E-03
    80 0.65301480983603E-04
    81 0.62132863632479E-02
    82 0.72080457120064E-02
    83 0.18292956166815E-02
    84 -.25274412005885E-02
    85 -.59507908104763E-02
    86 -.55833213542566E-03
    87 0.13545450732986E-04
    88 0.10791194967177E-03
    89 -.12145740040475E-03
    90 0.19446672224445E-03
    91 0.49050048671123E-04
    92 0.53180203687570E-04
    93 -.86396005741114E-03
    94 0.17790833255694E-02
    95 -.91512326815821E-03
    96 0.23592974529678E-02
    97 -.27813044357137E-03
    98 0.64101837915753E-03
    99 0.50931083418315E-04
   100 0.42316118988652E-04
   101 -.11797363694842E-04
   102 -.54946326597233E-04
   103 -.13456120476766E-05
   104 0.57048903302227E-04
   105 -.13384892217406E-04
   106 -.55427419113881E-04
   107 -.41221078996055E-04
   108 0.35560699786506E-04
   109 0.43508339219390E+00
   110 0.63949679714340E+00
   111 0.36624406293435E-01
   112 -.31441525067470E-01
   113 0.12197029064847E-01
   114 -.12244619739395E-02
   115 -.18886307351290E-02
   116 -.31204354694754E-03
   117 0.36892173924959E-02
   118 0.55501028933622E-02
   119 0.95893757616816E-03
   120 -.54239458272206E-03
   121 -.48829061469412E-03
   122 -.13168718355653E-03
   123 -.25222452956825E-04
   124 0.95205007023115E-04
   125 -.69982554066290E-04
   126 0.15646100613231E-03
   127 0.55839289325089E-05
   128 0.46274633001892E-04
   129 0.90391412466749E-04
   130 -.47884495603038E-03
   131 0.38845354356363E-03
   132 -.75260139919664E-03
   133 -.73052884963057E-04
   134 -.21070060335989E-03
   135 -.20759547872666E-04
   136 0.12244880493619E-04
   137 -.10511555429582E-04
   138 0.45112905849553E-04
   139 0.11039181101600E-04
   140 0.36112420516252E-05
   141 -.17261049714287E-04
   142 -.27467412197656E-04
   143 0.10491489442256E-04
   144 0.12061783239960E-04
   145 0.39376200351104E-04
   146 0.76024626440130E-04
   147 -.34832541620288E-03
   148 0.19746976965975E-02
   149 -.21609253305454E-02
   150 -.34313004150251E-04
   151 0.44070908903067E-04
   152 -.10721164878862E-04
   153 0.13740899812487E-03
   154 0.55812699235301E-03
   155 -.20928744296793E-04
   156 0.94815528280586E-03
   157 0.39417878385945E-03
   158 0.35594400641743E-03
   159 0.31501096942930E-04
   160 0.58185027011189E-05
   161 -.37319599644049E-04
   162 -.11160120804883E-04
   163 0.35266504696847E-04
   164 -.10146324811278E-04
   165 -.19219724574273E-03
   166 0.11702084851301E-03
   167 0.75176397229723E-04
   168 0.19247986937212E-04
   169 -.13446693895838E-03
   170 0.68347152058865E-05
   171 0.11185312533659E-04
   172 -.67808386122979E-05
   173 -.48842353830152E-05
   174 -.17438037869391E-04
   175 -.71560093863931E-05
   176 0.84824247975666E-05
   177 0.24313663644861E-05
   178 0.16253459035325E-04
   179 -.19295353968475E-05
   180 -.10579650334668E-04
   181 -.21676811977119E-03
   182 -.26511811939903E-03
   183 -.51494606721252E-03
   184 0.17763726750738E-02
   185 -.48541593849562E-03
   186 -.34128182345131E-04
   187 0.76602160172201E-04
   188 -.33159488234369E-04
   189 0.31442605760860E-03
   190 -.73879727956077E-03
   191 0.28083520141267E-03
   192 0.24177100192099E-03
   193 0.83727836879695E-05
   194 0.46571482860393E-04
   195 -.19912282089703E-05
   196 0.21160538932113E-05
   197 -.12482568424092E-06
   198 0.71446410914288E-05
   199 -.25645992481619E-05
   200 0.35865884009331E-05
   201 0.14723688792473E-05
   202 0.29439259254516E-04
   203 -.30911628133764E-04
   204 -.89466308131528E-04
   205 0.44344274654866E-04
   206 -.57055621459080E-04
   207 -.62059910560787E-09
   208 0.31981130008687E-05
   209 -.19717143522845E-05
   210 -.10271036049131E-05
   211 -.58520106719976E-05
   212 0.25843581113870E-05
   213 0.10279362259853E-05
   214 0.15612918301967E-05
   215 0.60974282965111E-07
   216 -.59003734009426E-05
   217 0.52593190268049E-04
   218 -.17845894648239E-03
   219 -.70221613300645E-03
   220 -.46390771175738E-04
   221 -.90814506924844E-05
   222 0.67011630716892E-04
   223 0.45305765325246E-04
   224 0.97279354201660E-04
   225 -.30614212494824E-03
   226 0.18995850818846E-04
   227 0.31262232568778E-04
   228 0.32097921187934E-05
   229 -.62262281119145E-05
   230 -.42154090189401E-03
   231 0.71701938510927E-03
   232 0.26667615893381E-04
   233 0.40841396043444E-04
   234 0.70791138118749E-04
   235 -.44070784428822E-04
   236 -.19264732770141E-03
   237 0.44504420191666E-03
   238 -.13348547757951E-03
   239 -.17134374565166E-03
   240 0.62664175358504E-04
   241 0.14618861896138E-03
   242 -.32420086645438E-03
   243 0.65341231639510E-04
   244 0.38014397753569E-04
   245 -.32416964905990E-04
   246 0.17099892143070E-04
   247 0.53901939762181E-04
   248 -.30264524523301E-03
   249 0.25501585562799E-03
   250 -.12715478114931E-03
   251 0.15168489237255E-03
   252 -.80162821969133E-04
 Sym=     3a   
 Ene= -.19125923385363E+02
 Spin= Alpha
 Occup= 2.000000
     1 0.10213292195912E-05
     2 -.38735693797150E-05
     3 -.24687170101179E-04
     4 0.18819623340443E-02
     5 0.40029920364182E-02
     6 -.52384238946271E-04
     7 0.46727872531338E-04
     8 -.64596064806416E-04
     9 0.10471518971211E-02
    10 0.96632356412171E-03
    11 -.50536721815712E-03
    12 0.10041630894354E-02
    13 0.14527422579979E-02
    14 -.10031441700070E-02
    15 -.27926554657247E-04
    16 0.47949888817553E-04
    17 -.20023334160307E-04
    18 -.19071436791920E-04
    19 -.15726460731536E-04
    20 -.48072641563358E-04
    21 0.44208595298520E-03
    22 -.53338177437635E-03
    23 0.91295821391147E-04
    24 0.43803251603304E-03
    25 -.18510187314977E-04
    26 0.24858494277398E-03
    27 0.24889032193801E-04
    28 -.63030280464193E-05
    29 -.95948358831231E-06
    30 -.20252171933814E-04
    31 0.32849385346932E-04
    32 -.21254493053758E-04
    33 -.13139968793898E-04
    34 -.24392985841404E-04
    35 0.22541775369815E-04
    36 0.68365255500828E-07
    37 0.21130602103087E-04
    38 -.11103128185919E-03
    39 -.17778029797080E-02
    40 0.53745350143888E-02
    41 -.22899083540631E-01
    42 0.43619505105925E-04
    43 -.36367543464675E-03
    44 0.10736337517752E-03
    45 -.28445137546984E-02
    46 0.73755650239268E-02
    47 -.26476375790679E-02
    48 -.18355681183995E-02
    49 -.27556493533532E-02
    50 -.28786484441662E-02
    51 -.13972079291016E-03
    52 0.19253788895894E-03
    53 -.52817096048788E-04
    54 -.16677162836083E-03
    55 0.33831235117386E-04
    56 -.16953135294584E-03
    57 -.10535310670429E-02
    58 0.25623550769448E-02
    59 -.15088240099019E-02
    60 -.68081082763388E-03
    61 0.15212147855480E-03
    62 -.79116323281845E-03
    63 0.56233875922689E-04
    64 0.14198753710844E-03
    65 0.10023891894116E-03
    66 -.10466059020208E-03
    67 -.89509074994023E-04
    68 0.25797723765639E-05
    69 0.29214928681231E-04
    70 -.10098719596533E-03
    71 -.13706439442268E-03
    72 0.53757932161351E-04
    73 -.20037613064605E-05
    74 0.99237696287785E-05
    75 0.67123973472849E-03
    76 -.96407134543374E-03
    77 0.92346759230786E-02
    78 0.85345093273731E-04
    79 0.28310364935267E-04
    80 -.21734447694510E-04
    81 -.29582604603284E-02
    82 -.29005203418922E-03
    83 -.73607873287999E-03
    84 -.44661385749095E-02
    85 0.26570337625797E-02
    86 -.18662146688895E-02
    87 -.39356844604132E-04
    88 0.24472207588986E-04
    89 0.14884637015145E-04
    90 -.10907420736558E-03
    91 0.62187834672625E-06
    92 -.65080221365225E-04
    93 0.10302558820376E-02
    94 -.15051509871705E-02
    95 0.47489510513286E-03
    96 0.64418440843383E-03
    97 -.11510201167653E-05
    98 0.62628362961931E-03
    99 0.99009240103172E-05
   100 0.15132332465079E-04
   101 -.18390819302971E-04
   102 -.30451271692082E-04
   103 -.30557156847279E-04
   104 0.34913558034836E-04
   105 0.17167788215805E-04
   106 0.10255002417253E-04
   107 -.10239684760821E-04
   108 -.16251389441787E-04
   109 0.20516073965710E-03
   110 0.35857507342160E-03
   111 -.57042570178104E-03
   112 0.22304800043088E-02
   113 -.12987925397591E-02
   114 0.10882793033754E-03
   115 0.39813857601644E-05
   116 0.71807022157169E-04
   117 -.10434001653228E-02
   118 -.30180322183267E-03
   119 -.53227663296148E-03
   120 0.43143141253629E-03
   121 -.89525374802608E-05
   122 0.25679666931410E-03
   123 -.13330093433693E-04
   124 0.15531931484001E-04
   125 -.22018380503084E-05
   126 -.15523654648735E-05
   127 -.60544057582629E-05
   128 -.68852094567860E-05
   129 0.11740798722906E-03
   130 -.71257738495095E-04
   131 -.46150248733969E-04
   132 0.11510605209319E-03
   133 0.96735637518224E-04
   134 0.74835476216015E-04
   135 0.16648261001135E-05
   136 -.52252072596731E-06
   137 -.13798857623563E-05
   138 -.24816645964477E-05
   139 -.42619064356498E-05
   140 0.24534338328802E-05
   141 0.24806599810588E-06
   142 0.49629415533991E-05
   143 -.60212281339250E-06
   144 -.10243312365097E-04
   145 0.85863549446480E-05
   146 0.34506804980877E-04
   147 -.28748146129519E-03
   148 0.14884773854915E-02
   149 0.23144323797044E-02
   150 0.42930400925526E-04
   151 -.83082066301042E-04
   152 0.31621115806522E-05
   153 -.54598559350821E-03
   154 0.10559110338403E-02
   155 -.22250129154697E-03
   156 -.33409366053681E-03
   157 0.68808785842228E-03
   158 -.16626701777104E-03
   159 0.76950072037192E-05
   160 -.10159547546182E-04
   161 0.24645403424625E-05
   162 0.40919015216164E-05
   163 0.82470406892443E-05
   164 -.44336598868424E-05
   165 -.83853814901314E-04
   166 0.13373330416062E-03
   167 -.49879489259303E-04
   168 -.10468102026158E-03
   169 -.28334173328010E-04
   170 -.27620942470141E-04
   171 0.92413160988292E-06
   172 -.31284479426031E-05
   173 -.19162533552990E-05
   174 -.23478112356561E-05
   175 -.26466240028005E-05
   176 0.10125590030580E-05
   177 0.11079585757434E-05
   178 0.68438773610385E-05
   179 0.15583646556783E-05
   180 -.55371341138673E-05
   181 0.43511114735396E+00
   182 0.63944566771297E+00
   183 0.37111726838157E-01
   184 -.30928100626630E-01
   185 0.13846498485923E-01
   186 0.16249073247760E-02
   187 -.10188898203003E-02
   188 0.91268097541519E-03
   189 -.35385220650161E-02
   190 0.42922326250056E-02
   191 -.24813077102179E-02
   192 0.11143990955314E-02
   193 -.10287941807699E-02
   194 0.10251652298296E-02
   195 -.75340312733402E-05
   196 0.10805442133450E-03
   197 -.10052039006116E-03
   198 0.35977206447464E-05
   199 0.53072584853521E-04
   200 -.49230077477297E-04
   201 0.14548686030539E-03
   202 -.74660341120328E-03
   203 0.60111655089789E-03
   204 0.10814406006206E-03
   205 -.32137699763661E-03
   206 0.38908721581912E-03
   207 0.26224527108583E-04
   208 0.53766909371019E-04
   209 0.47549315054575E-04
   210 -.63675473850017E-04
   211 -.63310413109317E-04
   212 -.10034574390430E-04
   213 0.28491578674470E-04
   214 -.88254654668849E-05
   215 -.53759526056921E-04
   216 0.80032354965223E-06
   217 0.93279227075243E-04
   218 0.10793666261155E-02
   219 0.29894274435141E-03
   220 -.79579606398121E-05
   221 0.15702349821410E-03
   222 -.30052489924786E-04
   223 -.39311178151875E-04
   224 -.24463975581120E-03
   225 0.85062928851641E-04
   226 0.19320800262475E-04
   227 0.16699925759434E-03
   228 -.45402176954485E-04
   229 -.83617535116658E-04
   230 -.38509304988939E-04
   231 0.18702665869264E-03
   232 -.29324550804390E-04
   233 0.13427999602249E-03
   234 -.97401724139094E-04
   235 0.41386279164118E-04
   236 0.16604434689354E-02