[Molden Format]
[Title]
                                                                                
[Atoms] AU
 c     1    6 0.49499386359186E+01 0.50196824307247E+00 0.52169133717351E+00
 c     2    6 0.21042913452299E+01 0.20414525511350E+00 0.55222781303529E+00
 c     3    6 0.12465864534427E+01 -.23419347827656E+01 -.49691319714139E+00
 o     4    8 0.25329918046820E+01 -.42024940479871E+01 -.43488271031496E+00
 o     5    8 -.10925362370062E+01 -.24173873161633E+01 -.14977067948056E+01
 c     6    6 -.27627994090761E+01 -.26959900277055E+00 -.12843783082882E+01
 c     7    6 -.13967078136100E+01 0.22463272989323E+01 -.15504953119862E+01
 o     8    8 -.24196849912649E+01 0.40920674426825E+01 -.23689258237659E+01
 o     9    8 0.10446248613752E+01 0.23065875807120E+01 -.83712180855394E+00
 c    10    6 -.43385271504209E+01 -.40757817864722E+00 0.11260141627244E+01
 h    11    1 0.56659750898813E+01 0.40493176589808E+00 -.14068708676750E+01
 h    12    1 0.58170414759067E+01 -.10074355536604E+01 0.16166229331730E+01
 h    13    1 0.54631415213209E+01 0.23217739631497E+01 0.13366901699607E+01
 h    14    1 0.14140350332061E+01 0.32230730725737E+00 0.25026381741418E+01
 h    15    1 -.39986076816836E+01 -.42297593126909E+00 -.29216176217053E+01
 h    16    1 -.31737722311035E+01 -.25541452054249E+00 0.28209415203572E+01
 h    17    1 -.57116328748274E+01 0.11286210841397E+01 0.11389769393981E+01
 h    18    1 -.53443635011490E+01 -.22039106071536E+01 0.11831056148195E+01
[GTO]
    1 0
 s    6 1.00
 0.13575349682000E+05 0.60645503603591E-03
 0.20352333680000E+04 0.46979088884982E-02
 0.46322562359000E+03 0.24332477647552E-01
 0.13120019598000E+03 0.97399968307759E-01
 0.42853015891000E+02 0.30195584253780E+00
 0.15584185766000E+02 0.66233609137875E+00
 s    2 1.00
 0.62067138508000E+01 0.65595308539952E+00
 0.25764896527000E+01 0.37585633285142E+00
 s    1 1.00
 0.57696339419000E+00 0.10000000000000E+01
 s    1 1.00
 0.22972831358000E+00 0.10000000000000E+01
 s    1 1.00
 0.95164440028000E-01 0.10000000000000E+01
 p    4 1.00
 0.34697232244000E+02 0.11327220003114E-01
 0.79582622826000E+01 0.76169659202087E-01
 0.23780826883000E+01 0.30192252202676E+00
 0.81433208183000E+00 0.72785027349547E+00
 p    1 1.00
 0.28887547253000E+00 0.10000000000000E+01
 p    1 1.00
 0.10056823671000E+00 0.10000000000000E+01
 d    1 1.00
 0.10970000000000E+01 0.10000000000000E+01
 d    1 1.00
 0.31800000000000E+00 0.10000000000000E+01
 f    1 1.00
 0.76100000000000E+00 0.10000000000000E+01
 
    2 0
 s    6 1.00
 0.13575349682000E+05 0.60645503603591E-03
 0.20352333680000E+04 0.46979088884982E-02
 0.46322562359000E+03 0.24332477647552E-01
 0.13120019598000E+03 0.97399968307759E-01
 0.42853015891000E+02 0.30195584253780E+00
 0.15584185766000E+02 0.66233609137875E+00
 s    2 1.00
 0.62067138508000E+01 0.65595308539952E+00
 0.25764896527000E+01 0.37585633285142E+00
 s    1 1.00
 0.57696339419000E+00 0.10000000000000E+01
 s    1 1.00
 0.22972831358000E+00 0.10000000000000E+01
 s    1 1.00
 0.95164440028000E-01 0.10000000000000E+01
 p    4 1.00
 0.34697232244000E+02 0.11327220003114E-01
 0.79582622826000E+01 0.76169659202087E-01
 0.23780826883000E+01 0.30192252202676E+00
 0.81433208183000E+00 0.72785027349547E+00
 p    1 1.00
 0.28887547253000E+00 0.10000000000000E+01
 p    1 1.00
 0.10056823671000E+00 0.10000000000000E+01
 d    1 1.00
 0.10970000000000E+01 0.10000000000000E+01
 d    1 1.00
 0.31800000000000E+00 0.10000000000000E+01
 f    1 1.00
 0.76100000000000E+00 0.10000000000000E+01
 
    3 0
 s    6 1.00
 0.13575349682000E+05 0.60645503603591E-03
 0.20352333680000E+04 0.46979088884982E-02
 0.46322562359000E+03 0.24332477647552E-01
 0.13120019598000E+03 0.97399968307759E-01
 0.42853015891000E+02 0.30195584253780E+00
 0.15584185766000E+02 0.66233609137875E+00
 s    2 1.00
 0.62067138508000E+01 0.65595308539952E+00
 0.25764896527000E+01 0.37585633285142E+00
 s    1 1.00
 0.57696339419000E+00 0.10000000000000E+01
 s    1 1.00
 0.22972831358000E+00 0.10000000000000E+01
 s    1 1.00
 0.95164440028000E-01 0.10000000000000E+01
 p    4 1.00
 0.34697232244000E+02 0.11327220003114E-01
 0.79582622826000E+01 0.76169659202087E-01
 0.23780826883000E+01 0.30192252202676E+00
 0.81433208183000E+00 0.72785027349547E+00
 p    1 1.00
 0.28887547253000E+00 0.10000000000000E+01
 p    1 1.00
 0.10056823671000E+00 0.10000000000000E+01
 d    1 1.00
 0.10970000000000E+01 0.10000000000000E+01
 d    1 1.00
 0.31800000000000E+00 0.10000000000000E+01
 f    1 1.00
 0.76100000000000E+00 0.10000000000000E+01
 
    4 0
 s    6 1.00
 0.27032382631000E+05 0.57227335211155E-03
 0.40523871392000E+04 0.44353233492995E-02
 0.92232722710000E+03 0.23020107706038E-01
 0.26124070989000E+03 0.92822490667928E-01
 0.85354641351000E+02 0.29378500009671E+00
 0.31035035245000E+02 0.67401604501641E+00
 s    2 1.00
 0.12260860728000E+02 0.63839937025506E+00
 0.49987076005000E+01 0.39534587125718E+00
 s    1 1.00
 0.11703108158000E+01 0.10000000000000E+01
 s    1 1.00
 0.46474740994000E+00 0.10000000000000E+01
 s    1 1.00
 0.18504536357000E+00 0.10000000000000E+01
 p    4 1.00
 0.63274954801000E+02 0.12018332222616E-01
 0.14627049379000E+02 0.83005421790056E-01
 0.44501223456000E+01 0.31991743925964E+00
 0.15275799647000E+01 0.70715542916104E+00
 p    1 1.00
 0.52935117943000E+00 0.10000000000000E+01
 p    1 1.00
 0.17478421270000E+00 0.10000000000000E+01
 d    1 1.00
 0.23140000000000E+01 0.10000000000000E+01
 d    1 1.00
 0.64500000000000E+00 0.10000000000000E+01
 f    1 1.00
 0.14280000000000E+01 0.10000000000000E+01
 
    5 0
 s    6 1.00
 0.27032382631000E+05 0.57227335211155E-03
 0.40523871392000E+04 0.44353233492995E-02
 0.92232722710000E+03 0.23020107706038E-01
 0.26124070989000E+03 0.92822490667928E-01
 0.85354641351000E+02 0.29378500009671E+00
 0.31035035245000E+02 0.67401604501641E+00
 s    2 1.00
 0.12260860728000E+02 0.63839937025506E+00
 0.49987076005000E+01 0.39534587125718E+00
 s    1 1.00
 0.11703108158000E+01 0.10000000000000E+01
 s    1 1.00
 0.46474740994000E+00 0.10000000000000E+01
 s    1 1.00
 0.18504536357000E+00 0.10000000000000E+01
 p    4 1.00
 0.63274954801000E+02 0.12018332222616E-01
 0.14627049379000E+02 0.83005421790056E-01
 0.44501223456000E+01 0.31991743925964E+00
 0.15275799647000E+01 0.70715542916104E+00
 p    1 1.00
 0.52935117943000E+00 0.10000000000000E+01
 p    1 1.00
 0.17478421270000E+00 0.10000000000000E+01
 d    1 1.00
 0.23140000000000E+01 0.10000000000000E+01
 d    1 1.00
 0.64500000000000E+00 0.10000000000000E+01
 f    1 1.00
 0.14280000000000E+01 0.10000000000000E+01
 
    6 0
 s    6 1.00
 0.13575349682000E+05 0.60645503603591E-03
 0.20352333680000E+04 0.46979088884982E-02
 0.46322562359000E+03 0.24332477647552E-01
 0.13120019598000E+03 0.97399968307759E-01
 0.42853015891000E+02 0.30195584253780E+00
 0.15584185766000E+02 0.66233609137875E+00
 s    2 1.00
 0.62067138508000E+01 0.65595308539952E+00
 0.25764896527000E+01 0.37585633285142E+00
 s    1 1.00
 0.57696339419000E+00 0.10000000000000E+01
 s    1 1.00
 0.22972831358000E+00 0.10000000000000E+01
 s    1 1.00
 0.95164440028000E-01 0.10000000000000E+01
 p    4 1.00
 0.34697232244000E+02 0.11327220003114E-01
 0.79582622826000E+01 0.76169659202087E-01
 0.23780826883000E+01 0.30192252202676E+00
 0.81433208183000E+00 0.72785027349547E+00
 p    1 1.00
 0.28887547253000E+00 0.10000000000000E+01
 p    1 1.00
 0.10056823671000E+00 0.10000000000000E+01
 d    1 1.00
 0.10970000000000E+01 0.10000000000000E+01
 d    1 1.00
 0.31800000000000E+00 0.10000000000000E+01
 f    1 1.00
 0.76100000000000E+00 0.10000000000000E+01
 
    7 0
 s    6 1.00
 0.13575349682000E+05 0.60645503603591E-03
 0.20352333680000E+04 0.46979088884982E-02
 0.46322562359000E+03 0.24332477647552E-01
 0.13120019598000E+03 0.97399968307759E-01
 0.42853015891000E+02 0.30195584253780E+00
 0.15584185766000E+02 0.66233609137875E+00
 s    2 1.00
 0.62067138508000E+01 0.65595308539952E+00
 0.25764896527000E+01 0.37585633285142E+00
 s    1 1.00
 0.57696339419000E+00 0.10000000000000E+01
 s    1 1.00
 0.22972831358000E+00 0.10000000000000E+01
 s    1 1.00
 0.95164440028000E-01 0.10000000000000E+01
 p    4 1.00
 0.34697232244000E+02 0.11327220003114E-01
 0.79582622826000E+01 0.76169659202087E-01
 0.23780826883000E+01 0.30192252202676E+00
 0.81433208183000E+00 0.72785027349547E+00
 p    1 1.00
 0.28887547253000E+00 0.10000000000000E+01
 p    1 1.00
 0.10056823671000E+00 0.10000000000000E+01
 d    1 1.00
 0.10970000000000E+01 0.10000000000000E+01
 d    1 1.00
 0.31800000000000E+00 0.10000000000000E+01
 f    1 1.00
 0.76100000000000E+00 0.10000000000000E+01
 
    8 0
 s    6 1.00
 0.27032382631000E+05 0.57227335211155E-03
 0.40523871392000E+04 0.44353233492995E-02
 0.92232722710000E+03 0.23020107706038E-01
 0.26124070989000E+03 0.92822490667928E-01
 0.85354641351000E+02 0.29378500009671E+00
 0.31035035245000E+02 0.67401604501641E+00
 s    2 1.00
 0.12260860728000E+02 0.63839937025506E+00
 0.49987076005000E+01 0.39534587125718E+00
 s    1 1.00
 0.11703108158000E+01 0.10000000000000E+01
 s    1 1.00
 0.46474740994000E+00 0.10000000000000E+01
 s    1 1.00
 0.18504536357000E+00 0.10000000000000E+01
 p    4 1.00
 0.63274954801000E+02 0.12018332222616E-01
 0.14627049379000E+02 0.83005421790056E-01
 0.44501223456000E+01 0.31991743925964E+00
 0.15275799647000E+01 0.70715542916104E+00
 p    1 1.00
 0.52935117943000E+00 0.10000000000000E+01
 p    1 1.00
 0.17478421270000E+00 0.10000000000000E+01
 d    1 1.00
 0.23140000000000E+01 0.10000000000000E+01
 d    1 1.00
 0.64500000000000E+00 0.10000000000000E+01
 f    1 1.00
 0.14280000000000E+01 0.10000000000000E+01
 
    9 0
 s    6 1.00
 0.27032382631000E+05 0.57227335211155E-03
 0.40523871392000E+04 0.44353233492995E-02
 0.92232722710000E+03 0.23020107706038E-01
 0.26124070989000E+03 0.92822490667928E-01
 0.85354641351000E+02 0.29378500009671E+00
 0.31035035245000E+02 0.67401604501641E+00
 s    2 1.00
 0.12260860728000E+02 0.63839937025506E+00
 0.49987076005000E+01 0.39534587125718E+00
 s    1 1.00
 0.11703108158000E+01 0.10000000000000E+01
 s    1 1.00
 0.46474740994000E+00 0.10000000000000E+01
 s    1 1.00
 0.18504536357000E+00 0.10000000000000E+01
 p    4 1.00
 0.63274954801000E+02 0.12018332222616E-01
 0.14627049379000E+02 0.83005421790056E-01
 0.44501223456000E+01 0.31991743925964E+00
 0.15275799647000E+01 0.70715542916104E+00
 p    1 1.00
 0.52935117943000E+00 0.10000000000000E+01
 p    1 1.00
 0.17478421270000E+00 0.10000000000000E+01
 d    1 1.00
 0.23140000000000E+01 0.10000000000000E+01
 d    1 1.00
 0.64500000000000E+00 0.10000000000000E+01
 f    1 1.00
 0.14280000000000E+01 0.10000000000000E+01
 
   10 0
 s    6 1.00
 0.13575349682000E+05 0.60645503603591E-03
 0.20352333680000E+04 0.46979088884982E-02
 0.46322562359000E+03 0.24332477647552E-01
 0.13120019598000E+03 0.97399968307759E-01
 0.42853015891000E+02 0.30195584253780E+00
 0.15584185766000E+02 0.66233609137875E+00
 s    2 1.00
 0.62067138508000E+01 0.65595308539952E+00
 0.25764896527000E+01 0.37585633285142E+00
 s    1 1.00
 0.57696339419000E+00 0.10000000000000E+01
 s    1 1.00
 0.22972831358000E+00 0.10000000000000E+01
 s    1 1.00
 0.95164440028000E-01 0.10000000000000E+01
 p    4 1.00
 0.34697232244000E+02 0.11327220003114E-01
 0.79582622826000E+01 0.76169659202087E-01
 0.23780826883000E+01 0.30192252202676E+00
 0.81433208183000E+00 0.72785027349547E+00
 p    1 1.00
 0.28887547253000E+00 0.10000000000000E+01
 p    1 1.00
 0.10056823671000E+00 0.10000000000000E+01
 d    1 1.00
 0.10970000000000E+01 0.10000000000000E+01
 d    1 1.00
 0.31800000000000E+00 0.10000000000000E+01
 f    1 1.00
 0.76100000000000E+00 0.10000000000000E+01
 
   11 0
 s    3 1.00
 0.34061341000000E+02 0.25439307208879E-01
 0.51235746000000E+01 0.19008594890375E+00
 0.11646626000000E+01 0.85244113011042E+00
 s    1 1.00
 0.32723041000000E+00 0.10000000000000E+01
 s    1 1.00
 0.10307241000000E+00 0.10000000000000E+01
 p    1 1.00
 0.80000000000000E+00 0.10000000000000E+01
 
   12 0
 s    3 1.00
 0.34061341000000E+02 0.25439307208879E-01
 0.51235746000000E+01 0.19008594890375E+00
 0.11646626000000E+01 0.85244113011042E+00
 s    1 1.00
 0.32723041000000E+00 0.10000000000000E+01
 s    1 1.00
 0.10307241000000E+00 0.10000000000000E+01
 p    1 1.00
 0.80000000000000E+00 0.10000000000000E+01
 
   13 0
 s    3 1.00
 0.34061341000000E+02 0.25439307208879E-01
 0.51235746000000E+01 0.19008594890375E+00
 0.11646626000000E+01 0.85244113011042E+00
 s    1 1.00
 0.32723041000000E+00 0.10000000000000E+01
 s    1 1.00
 0.10307241000000E+00 0.10000000000000E+01
 p    1 1.00
 0.80000000000000E+00 0.10000000000000E+01
 
   14 0
 s    3 1.00
 0.34061341000000E+02 0.25439307208879E-01
 0.51235746000000E+01 0.19008594890375E+00
 0.11646626000000E+01 0.85244113011042E+00
 s    1 1.00
 0.32723041000000E+00 0.10000000000000E+01
 s    1 1.00
 0.10307241000000E+00 0.10000000000000E+01
 p    1 1.00
 0.80000000000000E+00 0.10000000000000E+01
 
   15 0
 s    3 1.00
 0.34061341000000E+02 0.25439307208879E-01
 0.51235746000000E+01 0.19008594890375E+00
 0.11646626000000E+01 0.85244113011042E+00
 s    1 1.00
 0.32723041000000E+00 0.10000000000000E+01
 s    1 1.00
 0.10307241000000E+00 0.10000000000000E+01
 p    1 1.00
 0.80000000000000E+00 0.10000000000000E+01
 
   16 0
 s    3 1.00
 0.34061341000000E+02 0.25439307208879E-01
 0.51235746000000E+01 0.19008594890375E+00
 0.11646626000000E+01 0.85244113011042E+00
 s    1 1.00
 0.32723041000000E+00 0.10000000000000E+01
 s    1 1.00
 0.10307241000000E+00 0.10000000000000E+01
 p    1 1.00
 0.80000000000000E+00 0.10000000000000E+01
 
   17 0
 s    3 1.00
 0.34061341000000E+02 0.25439307208879E-01
 0.51235746000000E+01 0.19008594890375E+00
 0.11646626000000E+01 0.85244113011042E+00
 s    1 1.00
 0.32723041000000E+00 0.10000000000000E+01
 s    1 1.00
 0.10307241000000E+00 0.10000000000000E+01
 p    1 1.00
 0.80000000000000E+00 0.10000000000000E+01
 
   18 0
 s    3 1.00
 0.34061341000000E+02 0.25439307208879E-01
 0.51235746000000E+01 0.19008594890375E+00
 0.11646626000000E+01 0.85244113011042E+00
 s    1 1.00
 0.32723041000000E+00 0.10000000000000E+01
 s    1 1.00
 0.10307241000000E+00 0.10000000000000E+01
 p    1 1.00
 0.80000000000000E+00 0.10000000000000E+01
 
[MO]
 Sym=     1a   
 Ene= -.19197236209536E+02
 Spin= Alpha
 Occup= 2.000000
     1 0.30436035078446E-05
     2 -.15815143970313E-04
     3 0.44627511573588E-03
     4 -.54335912018669E-03
     5 0.24788487398810E-02
     6 -.11622697632619E-03
     7 0.98901983830757E-04
     8 -.14466352949304E-04
     9 0.56165575338049E-03
    10 -.29478022643288E-03
    11 -.34310631260325E-03
    12 -.10318792618153E-02
    13 -.31150047641450E-03
    14 0.37905650746588E-04
    15 -.10147056436909E-04
    16 0.26637365603471E-04
    17 -.16490309166562E-04
    18 -.53321921657469E-04
    19 0.27016540561698E-04
    20 -.34490644133682E-04
    21 -.22118656652824E-03
    22 -.85971526546723E-04
    23 0.30715809307497E-03
    24 0.54771253482406E-03
    25 -.24556034911641E-03
    26 0.45086288534097E-03
    27 0.19441166499143E-04
    28 0.26153072368634E-04
    29 -.51796090350267E-05
    30 -.12785022016118E-04
    31 -.49873229164889E-04
    32 0.19621385396775E-04
    33 -.13298039896267E-04
    34 0.14785200582847E-04
    35 -.12672210657260E-04
    36 -.23490366345945E-04
    37 0.17287676429675E-04
    38 -.85121972556906E-04
    39 -.20536588587968E-02
    40 0.68163966712926E-02
    41 -.15574145473822E-01
    42 0.98083788410012E-04
    43 -.39939150278238E-03
    44 0.20681887113456E-03
    45 -.14490296842319E-02
    46 0.64678493178413E-02
    47 -.33731031769445E-02
    48 0.38471105978917E-03
    49 0.12069833668894E-02
    50 0.18645808098362E-02
    51 -.77063192611939E-04
    52 0.11902444915060E-03
    53 -.41961256538663E-04
    54 -.17862732862450E-03
    55 0.65157024554461E-04
    56 -.14743202833601E-03
    57 -.17905520238047E-03
    58 0.50967174994168E-03
    59 -.33061654756121E-03
    60 -.77982178307797E-03
    61 0.94789466408635E-03
    62 -.19473084635844E-02
    63 0.93126875772242E-04
    64 0.60718018602308E-05
    65 0.10315071580807E-03
    66 -.10736302326827E-03
    67 -.32116589789788E-04
    68 0.10807674301934E-04
    69 -.17579791587074E-04
    70 0.23970412766557E-04
    71 -.14919888178669E-03
    72 0.14162896292880E-03
    73 0.63041183343943E-06
    74 -.21538594316344E-05
    75 0.15534607369686E-03
    76 0.91366132202107E-03
    77 0.63407029544675E-02
    78 -.49179192083457E-04
    79 -.29234370542097E-04
    80 -.83198611805642E-04
    81 0.46640084295126E-03
    82 0.23038946758358E-02
    83 0.66004433388503E-03
    84 0.39751214763916E-03
    85 0.29816933014461E-02
    86 0.32420578002815E-03
    87 -.47586867644403E-04
    88 0.54360254714407E-04
    89 -.67733870700034E-05
    90 -.41781199624125E-04
    91 0.36384239008646E-05
    92 -.45870526056447E-04
    93 0.16798932232432E-03
    94 -.24075374579058E-03
    95 0.72764423466260E-04
    96 0.85785692138457E-03
    97 -.12895667328441E-03
    98 0.44358773017635E-03
    99 0.11691619326651E-04
   100 -.97417698382260E-05
   101 -.16632301731854E-04
   102 -.75437915976643E-05
   103 0.18003252759477E-04
   104 0.51408969530846E-05
   105 -.81421617512008E-05
   106 -.49332970118191E-05
   107 0.17173677423743E-04
   108 -.12082400410650E-04
   109 -.76079735934527E-05
   110 0.98139157031242E-06
   111 -.16292772899961E-03
   112 0.12721926369446E-02
   113 0.87880870898007E-03
   114 0.28252081078467E-04
   115 -.23759434563469E-04
   116 -.20621372994372E-04
   117 -.39842210336479E-03
   118 0.49347024424871E-03
   119 0.95437045142521E-04
   120 -.38565698009992E-03
   121 -.11150817393821E-03
   122 0.21876469452113E-03
   123 -.13143351487712E-04
   124 0.20175126654991E-04
   125 -.70317751672782E-05
   126 0.57949747495452E-05
   127 0.96521116580976E-05
   128 -.14725968406667E-04
   129 0.43360971491373E-04
   130 -.64273404692067E-04
   131 0.20912433200693E-04
   132 -.53851608465114E-04
   133 -.34011407428841E-04
   134 0.47908840889992E-04
   135 0.27592815724650E-05
   136 -.53335250735789E-05
   137 0.26611068476332E-05
   138 0.27628713750838E-05
   139 -.11318109166193E-05
   140 0.76407548301998E-06
   141 -.64648360741403E-05
   142 0.82874856911525E-05
   143 -.43343249670388E-05
   144 0.24816335746770E-05
   145 -.19701084468469E-02
   146 -.28604774896946E-02
   147 -.47213792423393E-03
   148 0.11514882192372E-02
   149 -.14815516771445E-02
   150 -.35142178048209E-04
   151 -.72671770164949E-04
   152 -.73667970308900E-05
   153 0.12161418499944E-03
   154 0.48348911828893E-03
   155 0.66647830025172E-04
   156 -.65510035251418E-04
   157 -.27251271284353E-03
   158 -.24144359583913E-03
   159 -.51304344663125E-05
   160 -.44023404305505E-05
   161 0.95327748968631E-05
   162 -.19207025105962E-04
   163 0.58523522283955E-05
   164 -.99921025560526E-05
   165 0.31236381464402E-04
   166 0.28814375800502E-04
   167 -.60050757264904E-04
   168 0.11287918601443E-03
   169 -.15775952736029E-04
   170 0.65914873228891E-04
   171 -.82789809398939E-06
   172 -.14640492065381E-05
   173 -.48572090094979E-05
   174 0.44402387952524E-05
   175 0.16918657382016E-05
   176 0.18573617099633E-05
   177 -.33294969452908E-05
   178 0.27236239073266E-06
   179 0.46592680057338E-05
   180 -.10007442841764E-05
   181 0.80355547008104E-05
   182 -.37855545349412E-04
   183 0.21322213192270E-04
   184 0.22314474953129E-02
   185 -.37236330831886E-02
   186 0.11291051225730E-03
   187 0.11105175874392E-03
   188 -.77006342433077E-04
   189 0.66400759889405E-03
   190 0.58918878170808E-03
   191 0.83245756508529E-03
   192 0.12912335736780E-02
   193 -.13333651624195E-02
   194 0.55395297766222E-03
   195 0.24879182233283E-04
   196 0.37712964743762E-04
   197 -.62592146977045E-04
   198 0.23590616586699E-04
   199 0.33279328354065E-04
   200 -.48955844852496E-05
   201 -.88137154991823E-04
   202 -.11310293494594E-03
   203 0.20124008993777E-03
   204 0.39001308073319E-03
   205 -.37533353188723E-03
   206 0.73606733838291E-04
   207 -.23593496596340E-04
   208 0.25709099225063E-05
   209 -.10805584343436E-05
   210 0.18881793551677E-04
   211 0.58324463167938E-05
   212 -.33603425453059E-05
   213 0.12772203778118E-04
   214 -.92816839272454E-05
   215 0.48100638130177E-05
   216 -.48459317947113E-05
   217 0.41351835202457E-04
   218 -.22361221394986E-03
   219 -.85691995051523E-03
   220 0.59771724913603E-02
   221 0.56824946655795E-04
   222 0.23502646536375E-04
   223 -.32043168090271E-04
   224 0.35058068227681E-04
   225 0.82993658665861E-02
   226 0.56240064432171E-04
   227 0.24828322404847E-02
   228 -.26154327524796E-02
   229 0.20261852754389E-03
   230 -.10031521574006E-02
   231 0.28753625934071E-03
   232 -.13263105312104E-03
   233 -.15490520621967E-03
   234 0.17080523789281E-04
   235 0.15453940301974E-03
   236 -.42440484466920E-04
   237 0.25715236747549E-02
   238 -.19318417900007E-02
   239 -.63968188475426E-03
   240 0.39195948461671E-03
   241 0.10719891637343E-02
   242 0.54527956560769E-03
   243 0.10954747436904E-03
   244 -.78950580038526E-05
   245 -.98258639428802E-04
   246 -.33933056602819E-04
   247 0.26832079427110E-04
   248 0.14001942129520E-03
   249 -.11304030306873E-03
   250 -.16239747597359E-04
   251 -.81916230115341E-05
   252 -.39626639001925E-04
   253 -.23614746517820E-04
   254 -.25848949684996E-04
   255 -.25269966378386E-03
   256 0.24756996976826E-02
   257 -.79603494167812E-03
   258 0.26661594390158E-04
   259 -.37067466315851E-04
   260 0.24519582262758E-04
   261 0.49314850866225E-03
   262 -.44561353715199E-03
   263 0.24527377459433E-03
   264 0.53868784014826E-03
   265 0.14028839577292E-03
   266 0.13565712637485E-03
   267 0.27705750608458E-04
   268 0.17077387884987E-04
   269 -.44783138493444E-04
   270 0.15943783865767E-04
   271 0.25258968151867E-04
   272 -.21924123245529E-04
   273 -.10684070696361E-03
   274 -.47515746813762E-04
   275 0.15435645377737E-03
   276 -.11135964608275E-03
   277 -.72624529117918E-04
   278 0.48992482817958E-04
   279 -.11430089557024E-04
   280 -.15387269864774E-05
   281 0.15553299985118E-04
   282 0.83590642429016E-05
   283 0.99711268753821E-05
   284 -.17667764851249E-04
   285 0.69760101001481E-05
   286 -.79067079910360E-05
   287 -.31991767734527E-05
   288 0.10342176835307E-04
   289 0.43511714712802E+00
   290 0.63930104096293E+00
   291 0.38508503386843E-01
   292 -.34792777801626E-01
   293 0.80414885045357E-02
   294 -.11623801935113E-02
   295 -.16160920774888E-02
   296 0.38709161058484E-03
   297 0.34898736292006E-02
   298 0.43005714357347E-02
   299 -.89282923620724E-03
   300 0.17994458033854E-02
   301 -.78708107217109E-03
   302 0.65000421956534E-03
   303 0.12686687968838E-03
   304 -.39622664451723E-04
   305 -.87244215236654E-04
   306 -.10304835990670E-03
   307 0.15283866196892E-03
   308 -.10794832335865E-03
   309 -.76619823986240E-03
   310 0.19401775020737E-03
   311 0.57218048965503E-03
   312 0.61931036591306E-03
   313 -.93061375734609E-03
   314 0.68016763526191E-03
   315 0.80100741337440E-04
   316 0.16688304261038E-05
   317 0.12165481383440E-04
   318 -.79014065183278E-04
   319 -.88820459965605E-05
   320 0.46747330819188E-04
   321 -.28452356423908E-04
   322 0.66430750311477E-05
   323 -.63069036830616E-04
   324 0.41656968842450E-04
   325 -.28566326457927E-05
   326 0.13364279324211E-04
   327 0.11067089907884E-03
   328 -.15930624377414E-02
   329 0.36678834857391E-02
   330 -.48490547611436E-04
   331 -.29810271053803E-04
   332 0.33604698019536E-04
   333 -.43206365376245E-03
   334 0.12091841067998E-03
   335 0.45870035095671E-03
   336 0.79449790327457E-04
   337 0.76642840258778E-03
   338 -.71003789316728E-03
   339 -.19583503099917E-04
   340 0.22463924068094E-04
   341 -.28804209681778E-05
   342 -.22752853947205E-04
   343 0.98244926795234E-05
   344 0.20009324555455E-04
   345 0.40300262651024E-04
   346 0.10080615716712E-04
   347 -.50380878367736E-04
   348 0.23716340571613E-04
   349 0.12661533478233E-03
   350 -.91803759122082E-04
   351 0.40601740793213E-05
   352 -.29021329800345E-05
   353 0.22157713299699E-05
   354 0.52086623742301E-05
   355 0.82966200061703E-06
   356 0.25307262425018E-05
   357 -.10655957519337E-04
   358 0.30639579732437E-05
   359 -.55034954323465E-05
   360 0.10863946137334E-05
   361 -.76332701541192E-04
   362 -.36519313045093E-03
   363 0.46617416706152E-03
   364 -.84045047549071E-04
   365 0.96642709605012E-04
   366 -.99541114462193E-04
   367 0.10085254929635E-03
   368 0.84495897090277E-03
   369 -.23477639696121E-03
   370 -.20934708625692E-04
   371 0.70301537815318E-04
   372 -.90041483609230E-04
   373 -.11431088143281E-04
   374 -.16015238481043E-03
   375 0.14308663660594E-03
   376 -.11652650567858E-03
   377 0.84593308285041E-04
   378 -.96851761301419E-04
   379 0.43715985975631E-04
   380 0.17067344715774E-02
   381 0.14891360401673E-02
   382 0.36097302144673E-05
   383 0.59725649196802E-04
   384 -.13720759803739E-03
   385 0.29268490596200E-04
   386 0.58640777826612E-03
   387 0.70787957699230E-03
   388 -.66469821445974E-04
   389 0.69395320376158E-04
   390 0.12751560875280E-03
   391 -.25958663433489E-04
   392 0.22024582529612E-05
   393 -.33799939034609E-03
   394 0.79061701942716E-05
   395 0.11360705062758E-04
   396 -.27672178005803E-04
   397 0.56583118739624E-04
   398 -.27099519113603E-03
   399 -.96896391186949E-03
   400 -.33733644125412E-04
   401 0.59873836491444E-05
   402 0.42233567284118E-04
   403 0.34093789604059E-04
   404 -.29731981128861E-04
   405 -.21467294882987E-03
   406 0.45255143655946E-04
   407 0.21004083445730E-05
   408 -.65038070933150E-05
 Sym=     2a   
 Ene= -.19196416310438E+02
 Spin= Alpha
 Occup= 2.000000
     1 0.29234157946910E-05
     2 -.14554071175617E-04
     3 0.10831377470154E-03
     4 0.37993082598412E-03
     5 0.31380234697952E-02
     6 -.17476506773593E-04
     7 -.42066125505553E-04
     8 -.39672374785118E-04
     9 -.31884333544265E-03
    10 -.29033855642209E-04
    11 0.15864290000690E-03
    12 -.71123658486006E-03
    13 0.48969554505334E-03
    14 0.72702011233281E-03
    15 -.61299855317447E-05
    16 0.20083911965855E-04
    17 -.13953926434111E-04
    18 0.40371534493418E-04
    19 0.19430404405170E-04
    20 0.92154165162983E-05
    21 0.69476715283556E-04
    22 -.13376276253504E-03
    23 0.64286047251488E-04
    24 -.95441986721152E-04
    25 -.25659679485662E-03
    26 -.72942035764396E-04
    27 0.26174894483705E-05
    28 0.25029502772793E-05
    29 -.74096166494557E-05
    30 -.11510405847803E-04
    31 -.15627833346128E-06
    32 0.17294048157322E-04
    33 0.79986752456366E-05
    34 -.32017818451178E-05
    35 -.73530042480835E-05
    36 0.10735669013521E-04
    37 0.10927520687567E-04
    38 -.51635499269117E-04
    39 -.94583054067759E-04
    40 0.28665483584090E-02
    41 -.21472846584775E-02
    42 -.92472129980979E-05
    43 -.60000585372425E-04
    44 -.76271481351205E-04
    45 -.12169773261865E-02
    46 -.14484513047523E-02
    47 -.38026191438864E-03
    48 -.39160512732085E-02
    49 0.21223647790526E-03
    50 -.73891119925909E-03
    51 0.91753810781722E-05
    52 0.39691900502188E-04
    53 -.48867281580360E-04
    54 0.16483463693661E-04
    55 0.63693692411995E-04
    56 0.27666511251654E-04
    57 -.27369019779433E-03
    58 0.17641949911284E-04
    59 0.25604824788304E-03
    60 0.34739287357138E-03
    61 -.34884616198712E-03
    62 0.24838942340865E-03
    63 0.17304675732895E-04
    64 -.58550545387464E-05
    65 0.69221126423871E-05
    66 -.17232009738192E-04
    67 0.16010954848538E-04
    68 0.91819972507894E-05
    69 -.59846490222149E-05
    70 -.81555748721745E-05
    71 -.18468985900562E-04
    72 -.87013620744929E-05
    73 0.43868632470455E-04
    74 -.23639602943473E-03
    75 -.51424135680035E-03
    76 0.39961992628827E-02
    77 -.43879562311815E-03
    78 -.11556689921872E-04
    79 0.72281379359315E-04
    80 0.26910844059574E-04
    81 -.78266148415809E-02
    82 -.84088162345346E-03
    83 -.34914937982628E-02
    84 0.34366944230634E-02
    85 -.35344649209102E-04
    86 0.11433231111358E-02
    87 0.22493326223399E-03
    88 -.12319081870203E-03
    89 -.10174244353195E-03
    90 0.69807082934004E-05
    91 0.20957853556208E-03
    92 0.47725815157029E-04
    93 0.22396449108717E-02
    94 -.19869493804962E-02
    95 -.25269553037545E-03
    96 0.33260685821941E-03
    97 0.15246396419489E-02
    98 -.31048034710414E-03
    99 -.61189338593163E-04
   100 0.84247365918617E-05
   101 0.12501761516457E-03
   102 0.23369111608783E-04
   103 0.18762030064353E-04
   104 -.16966545391975E-03
   105 0.58725000746756E-04
   106 -.30065000291512E-04
   107 0.19367223840137E-05
   108 -.33521779177634E-04
   109 -.22078894684899E-04
   110 -.26746991986346E-04
   111 -.21509359865289E-03
   112 0.21919179980793E-02
   113 -.11410543299918E-02
   114 -.30907822726289E-04
   115 0.49732141604006E-04
   116 0.59642069967136E-05
   117 -.50262359961542E-03
   118 0.30143856271915E-03
   119 -.16056575408158E-03
   120 -.53397036817956E-03
   121 -.29089387029113E-03
   122 -.28155796159949E-03
   123 0.16687847313727E-04
   124 0.19860333791749E-04
   125 -.36548181105475E-04
   126 -.14726873022642E-05
   127 0.33545255580715E-04
   128 0.25896040640885E-04
   129 -.46207641952012E-04
   130 -.64917881460629E-04
   131 0.11112552341264E-03
   132 -.53497877896999E-04
   133 -.12181031480101E-03
   134 -.10613833602391E-03
   135 0.11228372734224E-04
   136 0.19457627985960E-05
   137 -.90007127256207E-05
   138 -.51124150289914E-05
   139 -.10636829281192E-04
   140 0.19050138963735E-04
   141 -.99520277972666E-05
   142 0.80263145497417E-05
   143 -.69744156634737E-05
   144 -.87015999560810E-05
   145 0.43511657137264E+00
   146 0.63930362809729E+00
   147 0.38485342457157E-01
   148 -.34907733749941E-01
   149 0.98347850714435E-02
   150 0.67963937591862E-03