[Molden Format]
[Title]
                                                                                
[Atoms] AU
 c     1    6 0.41306096456090E+01 -.12452780586150E+01 0.18459093305212E+00
 o     2    8 0.14621119817858E+01 -.15106701144051E+01 0.59208958759726E+00
 c     3    6 0.25708250018600E-02 0.37117311330347E+00 -.32594441780287E+00
 o     4    8 0.83276957538759E+00 0.21860049147077E+01 -.14296938481450E+01
 c     5    6 -.27020140137531E+01 -.12775414942854E+00 0.21944387810962E+00
 c     6    6 -.44907626839212E+01 0.14738975709363E+01 -.51021641682745E+00
 h     7    1 0.49875307215595E+01 -.29051866509695E+01 0.10379525586119E+01
 h     8    1 0.48297692397870E+01 0.47289431394695E+00 0.10796625271856E+01
 h     9    1 0.45484921058986E+01 -.11684534384731E+01 -.18304995898429E+01
 h    10    1 -.31317367577681E+01 -.18513918842768E+01 0.12344410042752E+01
 h    11    1 -.64664990268678E+01 0.11207157812398E+01 -.11774912484927E+00
 h    12    1 -.40028397229931E+01 0.31840542712123E+01 -.15234472018926E+01
[GTO]
    1 0
 s    6 1.00
 0.13575349682000E+05 0.60645503603591E-03
 0.20352333680000E+04 0.46979088884982E-02
 0.46322562359000E+03 0.24332477647552E-01
 0.13120019598000E+03 0.97399968307759E-01
 0.42853015891000E+02 0.30195584253780E+00
 0.15584185766000E+02 0.66233609137875E+00
 s    2 1.00
 0.62067138508000E+01 0.65595308539952E+00
 0.25764896527000E+01 0.37585633285142E+00
 s    1 1.00
 0.57696339419000E+00 0.10000000000000E+01
 s    1 1.00
 0.22972831358000E+00 0.10000000000000E+01
 s    1 1.00
 0.95164440028000E-01 0.10000000000000E+01
 p    4 1.00
 0.34697232244000E+02 0.11327220003114E-01
 0.79582622826000E+01 0.76169659202087E-01
 0.23780826883000E+01 0.30192252202676E+00
 0.81433208183000E+00 0.72785027349547E+00
 p    1 1.00
 0.28887547253000E+00 0.10000000000000E+01
 p    1 1.00
 0.10056823671000E+00 0.10000000000000E+01
 d    1 1.00
 0.10970000000000E+01 0.10000000000000E+01
 d    1 1.00
 0.31800000000000E+00 0.10000000000000E+01
 f    1 1.00
 0.76100000000000E+00 0.10000000000000E+01
 
    2 0
 s    6 1.00
 0.27032382631000E+05 0.57227335211155E-03
 0.40523871392000E+04 0.44353233492995E-02
 0.92232722710000E+03 0.23020107706038E-01
 0.26124070989000E+03 0.92822490667928E-01
 0.85354641351000E+02 0.29378500009671E+00
 0.31035035245000E+02 0.67401604501641E+00
 s    2 1.00
 0.12260860728000E+02 0.63839937025506E+00
 0.49987076005000E+01 0.39534587125718E+00
 s    1 1.00
 0.11703108158000E+01 0.10000000000000E+01
 s    1 1.00
 0.46474740994000E+00 0.10000000000000E+01
 s    1 1.00
 0.18504536357000E+00 0.10000000000000E+01
 p    4 1.00
 0.63274954801000E+02 0.12018332222616E-01
 0.14627049379000E+02 0.83005421790056E-01
 0.44501223456000E+01 0.31991743925964E+00
 0.15275799647000E+01 0.70715542916104E+00
 p    1 1.00
 0.52935117943000E+00 0.10000000000000E+01
 p    1 1.00
 0.17478421270000E+00 0.10000000000000E+01
 d    1 1.00
 0.23140000000000E+01 0.10000000000000E+01
 d    1 1.00
 0.64500000000000E+00 0.10000000000000E+01
 f    1 1.00
 0.14280000000000E+01 0.10000000000000E+01
 
    3 0
 s    6 1.00
 0.13575349682000E+05 0.60645503603591E-03
 0.20352333680000E+04 0.46979088884982E-02
 0.46322562359000E+03 0.24332477647552E-01
 0.13120019598000E+03 0.97399968307759E-01
 0.42853015891000E+02 0.30195584253780E+00
 0.15584185766000E+02 0.66233609137875E+00
 s    2 1.00
 0.62067138508000E+01 0.65595308539952E+00
 0.25764896527000E+01 0.37585633285142E+00
 s    1 1.00
 0.57696339419000E+00 0.10000000000000E+01
 s    1 1.00
 0.22972831358000E+00 0.10000000000000E+01
 s    1 1.00
 0.95164440028000E-01 0.10000000000000E+01
 p    4 1.00
 0.34697232244000E+02 0.11327220003114E-01
 0.79582622826000E+01 0.76169659202087E-01
 0.23780826883000E+01 0.30192252202676E+00
 0.81433208183000E+00 0.72785027349547E+00
 p    1 1.00
 0.28887547253000E+00 0.10000000000000E+01
 p    1 1.00
 0.10056823671000E+00 0.10000000000000E+01
 d    1 1.00
 0.10970000000000E+01 0.10000000000000E+01
 d    1 1.00
 0.31800000000000E+00 0.10000000000000E+01
 f    1 1.00
 0.76100000000000E+00 0.10000000000000E+01
 
    4 0
 s    6 1.00
 0.27032382631000E+05 0.57227335211155E-03
 0.40523871392000E+04 0.44353233492995E-02
 0.92232722710000E+03 0.23020107706038E-01
 0.26124070989000E+03 0.92822490667928E-01
 0.85354641351000E+02 0.29378500009671E+00
 0.31035035245000E+02 0.67401604501641E+00
 s    2 1.00
 0.12260860728000E+02 0.63839937025506E+00
 0.49987076005000E+01 0.39534587125718E+00
 s    1 1.00
 0.11703108158000E+01 0.10000000000000E+01
 s    1 1.00
 0.46474740994000E+00 0.10000000000000E+01
 s    1 1.00
 0.18504536357000E+00 0.10000000000000E+01
 p    4 1.00
 0.63274954801000E+02 0.12018332222616E-01
 0.14627049379000E+02 0.83005421790056E-01
 0.44501223456000E+01 0.31991743925964E+00
 0.15275799647000E+01 0.70715542916104E+00
 p    1 1.00
 0.52935117943000E+00 0.10000000000000E+01
 p    1 1.00
 0.17478421270000E+00 0.10000000000000E+01
 d    1 1.00
 0.23140000000000E+01 0.10000000000000E+01
 d    1 1.00
 0.64500000000000E+00 0.10000000000000E+01
 f    1 1.00
 0.14280000000000E+01 0.10000000000000E+01
 
    5 0
 s    6 1.00
 0.13575349682000E+05 0.60645503603591E-03
 0.20352333680000E+04 0.46979088884982E-02
 0.46322562359000E+03 0.24332477647552E-01
 0.13120019598000E+03 0.97399968307759E-01
 0.42853015891000E+02 0.30195584253780E+00
 0.15584185766000E+02 0.66233609137875E+00
 s    2 1.00
 0.62067138508000E+01 0.65595308539952E+00
 0.25764896527000E+01 0.37585633285142E+00
 s    1 1.00
 0.57696339419000E+00 0.10000000000000E+01
 s    1 1.00
 0.22972831358000E+00 0.10000000000000E+01
 s    1 1.00
 0.95164440028000E-01 0.10000000000000E+01
 p    4 1.00
 0.34697232244000E+02 0.11327220003114E-01
 0.79582622826000E+01 0.76169659202087E-01
 0.23780826883000E+01 0.30192252202676E+00
 0.81433208183000E+00 0.72785027349547E+00
 p    1 1.00
 0.28887547253000E+00 0.10000000000000E+01
 p    1 1.00
 0.10056823671000E+00 0.10000000000000E+01
 d    1 1.00
 0.10970000000000E+01 0.10000000000000E+01
 d    1 1.00
 0.31800000000000E+00 0.10000000000000E+01
 f    1 1.00
 0.76100000000000E+00 0.10000000000000E+01
 
    6 0
 s    6 1.00
 0.13575349682000E+05 0.60645503603591E-03
 0.20352333680000E+04 0.46979088884982E-02
 0.46322562359000E+03 0.24332477647552E-01
 0.13120019598000E+03 0.97399968307759E-01
 0.42853015891000E+02 0.30195584253780E+00
 0.15584185766000E+02 0.66233609137875E+00
 s    2 1.00
 0.62067138508000E+01 0.65595308539952E+00
 0.25764896527000E+01 0.37585633285142E+00
 s    1 1.00
 0.57696339419000E+00 0.10000000000000E+01
 s    1 1.00
 0.22972831358000E+00 0.10000000000000E+01
 s    1 1.00
 0.95164440028000E-01 0.10000000000000E+01
 p    4 1.00
 0.34697232244000E+02 0.11327220003114E-01
 0.79582622826000E+01 0.76169659202087E-01
 0.23780826883000E+01 0.30192252202676E+00
 0.81433208183000E+00 0.72785027349547E+00
 p    1 1.00
 0.28887547253000E+00 0.10000000000000E+01
 p    1 1.00
 0.10056823671000E+00 0.10000000000000E+01
 d    1 1.00
 0.10970000000000E+01 0.10000000000000E+01
 d    1 1.00
 0.31800000000000E+00 0.10000000000000E+01
 f    1 1.00
 0.76100000000000E+00 0.10000000000000E+01
 
    7 0
 s    3 1.00
 0.34061341000000E+02 0.25439307208879E-01
 0.51235746000000E+01 0.19008594890375E+00
 0.11646626000000E+01 0.85244113011042E+00
 s    1 1.00
 0.32723041000000E+00 0.10000000000000E+01
 s    1 1.00
 0.10307241000000E+00 0.10000000000000E+01
 p    1 1.00
 0.80000000000000E+00 0.10000000000000E+01
 
    8 0
 s    3 1.00
 0.34061341000000E+02 0.25439307208879E-01
 0.51235746000000E+01 0.19008594890375E+00
 0.11646626000000E+01 0.85244113011042E+00
 s    1 1.00
 0.32723041000000E+00 0.10000000000000E+01
 s    1 1.00
 0.10307241000000E+00 0.10000000000000E+01
 p    1 1.00
 0.80000000000000E+00 0.10000000000000E+01
 
    9 0
 s    3 1.00
 0.34061341000000E+02 0.25439307208879E-01
 0.51235746000000E+01 0.19008594890375E+00
 0.11646626000000E+01 0.85244113011042E+00
 s    1 1.00
 0.32723041000000E+00 0.10000000000000E+01
 s    1 1.00
 0.10307241000000E+00 0.10000000000000E+01
 p    1 1.00
 0.80000000000000E+00 0.10000000000000E+01
 
   10 0
 s    3 1.00
 0.34061341000000E+02 0.25439307208879E-01
 0.51235746000000E+01 0.19008594890375E+00
 0.11646626000000E+01 0.85244113011042E+00
 s    1 1.00
 0.32723041000000E+00 0.10000000000000E+01
 s    1 1.00
 0.10307241000000E+00 0.10000000000000E+01
 p    1 1.00
 0.80000000000000E+00 0.10000000000000E+01
 
   11 0
 s    3 1.00
 0.34061341000000E+02 0.25439307208879E-01
 0.51235746000000E+01 0.19008594890375E+00
 0.11646626000000E+01 0.85244113011042E+00
 s    1 1.00
 0.32723041000000E+00 0.10000000000000E+01
 s    1 1.00
 0.10307241000000E+00 0.10000000000000E+01
 p    1 1.00
 0.80000000000000E+00 0.10000000000000E+01
 
   12 0
 s    3 1.00
 0.34061341000000E+02 0.25439307208879E-01
 0.51235746000000E+01 0.19008594890375E+00
 0.11646626000000E+01 0.85244113011042E+00
 s    1 1.00
 0.32723041000000E+00 0.10000000000000E+01
 s    1 1.00
 0.10307241000000E+00 0.10000000000000E+01
 p    1 1.00
 0.80000000000000E+00 0.10000000000000E+01
 
[MO]
 Sym=     1a   
 Ene= -.19173373931619E+02
 Spin= Alpha
 Occup= 2.000000
     1 0.27465593670516E-04
     2 -.13838144426591E-03
     3 -.17242756217707E-02
     4 0.69376577258177E-02
     5 -.35995075813334E-02
     6 0.17767901911362E-03
     7 0.17865847639082E-04
     8 -.27179938658499E-04
     9 -.52933031546714E-02
    10 -.76612453875492E-03
    11 0.94280571998029E-03
    12 -.18004148755757E-03
    13 -.39396808731923E-03
    14 0.24072771663556E-03
    15 0.27574782200220E-03
    16 -.13772122460863E-03
    17 -.13802659739356E-03
    18 0.46798718737113E-04
    19 -.74000203815409E-04
    20 -.12913047236595E-04
    21 0.16085989808425E-02
    22 -.77532397316344E-03
    23 -.83327500767902E-03
    24 0.29375743182370E-03
    25 -.44943687415296E-03
    26 -.13299291523717E-03
    27 -.19538662253437E-03
    28 0.26156893181283E-04
    29 -.39960066142650E-04
    30 0.13131597381254E-03
    31 -.44232446596309E-04
    32 0.78962685791920E-04
    33 0.13082268811603E-03
    34 0.91392918561793E-05
    35 -.25350631223708E-04
    36 0.16725725453108E-04
    37 0.43511556631224E+00
    38 0.63938462228815E+00
    39 0.37682072264839E-01
    40 -.32262787658340E-01
    41 0.76641074725586E-02
    42 0.61567715798519E-03
    43 0.16038695202968E-02
    44 -.96296908177753E-03
    45 -.75845619742469E-03
    46 -.45554028789791E-02
    47 0.26377171818252E-02
    48 -.15316986010715E-02
    49 0.28257360051060E-03
    50 -.11155618953794E-04
    51 0.17730434395710E-03
    52 -.47240288146930E-04
    53 -.13006405581017E-03
    54 -.11125990162719E-03
    55 0.24727555521021E-04
    56 -.61460939003717E-04
    57 -.10090631833460E-02
    58 0.23861468120565E-03
    59 0.77044850214039E-03
    60 0.64548476853243E-03
    61 -.14385483112925E-03
    62 0.40309431915447E-03
    63 -.85696066108990E-04
    64 0.16866494086701E-04
    65 -.38918069641588E-04
    66 0.81377344651911E-04
    67 -.37035954262322E-04
    68 0.36728869480148E-04
    69 0.33595992882499E-04
    70 0.14407177870345E-04
    71 0.15485200082849E-04
    72 -.29043055007166E-04
    73 0.41846453981599E-04
    74 -.22607085378299E-03
    75 -.34773032003966E-03
    76 0.19020415777613E-02
    77 -.31354644643884E-02
    78 -.53979422618674E-04
    79 -.23453009472482E-04
    80 0.18427256415098E-04
    81 0.62669729602252E-02
    82 -.53822940256610E-02
    83 0.24215922700686E-02
    84 -.17777079523318E-02
    85 0.41383055799371E-02
    86 -.21592508398635E-02
    87 0.68975895745275E-04
    88 0.53655925288170E-04
    89 -.12263182103344E-03
    90 -.24798146349004E-03
    91 0.11243816654842E-03
    92 -.12346295012742E-03
    93 -.12381232734048E-02
    94 0.13979746196276E-02
    95 -.15985134622286E-03
    96 -.18460445751232E-02
    97 0.11099397721495E-02
    98 -.11325373992944E-02
    99 0.28946510929008E-04
   100 0.30349501483218E-04
   101 -.11522658520863E-03
   102 0.32862763923913E-04
   103 -.71950254712319E-04
   104 0.19203841279634E-04
   105 -.71698583613134E-04
   106 0.31232125672495E-04
   107 0.13538884512537E-03
   108 -.55655828977726E-04
   109 -.24156290964070E-04
   110 -.32738422610645E-04
   111 -.18187089959822E-03
   112 0.13159890994144E-02
   113 -.16368513767785E-02
   114 -.53707519651658E-04
   115 -.46442353977656E-04
   116 0.31359931132306E-04
   117 0.34763572132233E-03
   118 -.36373003299150E-03
   119 0.17140079740559E-03
   120 0.92067719787737E-03
   121 -.50373287856708E-03
   122 0.19413593423227E-03
   123 0.29803872476468E-04
   124 -.34093988651646E-05
   125 -.26394473611304E-04
   126 0.86089278757240E-05
   127 -.12629894837695E-04
   128 -.24140185431230E-04
   129 -.17683089028810E-03
   130 0.93812510925741E-04
   131 0.83018379362357E-04
   132 -.47940160719692E-04
   133 0.56846638543752E-04
   134 0.93191396125446E-06
   135 0.40997383831658E-05
   136 -.16531104169342E-05
   137 0.68029372224060E-05
   138 -.72465851310961E-05
   139 0.44278983585756E-05
   140 -.22398561304829E-05
   141 0.17462089022618E-05
   142 -.22100179986289E-05
   143 -.68872419150951E-05
   144 0.59828709552902E-05
   145 0.24057480269193E-04
   146 -.11830769386772E-03
   147 0.80533237484344E-03
   148 0.57417241992195E-03
   149 0.31610183320939E-02
   150 -.11743918320280E-04
   151 -.14108299808223E-04
   152 0.91577629574544E-05
   153 0.40111963308371E-02
   154 0.36740609013231E-03
   155 -.59914204671561E-03
   156 0.93233856633009E-03
   157 -.20635975307796E-03
   158 0.25148274651581E-04
   159 0.60673632323715E-04
   160 -.12413141614818E-04
   161 -.48260490708898E-04
   162 -.55582039931694E-04
   163 0.17882033288790E-04
   164 -.24705097572478E-04
   165 0.22452394151932E-03
   166 -.32709827009186E-03
   167 0.10257432857254E-03
   168 0.10626805550362E-02
   169 -.60742530845947E-03
   170 0.20844129888482E-03
   171 -.91774345783637E-05
   172 -.28876367469165E-04
   173 0.16463055744551E-04
   174 -.23060490195702E-05
   175 0.52668180850047E-04
   176 -.26114323885376E-04
   177 0.14618869565337E-04
   178 -.13926468487458E-04
   179 0.40268168280651E-05
   180 0.16165942165465E-05
   181 0.82687687294242E-05
   182 -.41547259985546E-04
   183 0.57830760714381E-03
   184 0.17065752113264E-02
   185 -.19715647865839E-02
   186 0.10412835920072E-03
   187 -.20298188776822E-04
   188 0.12259329213537E-05
   189 0.12040860493937E-02
   190 -.13443027455716E-02
   191 0.64240926912354E-03
   192 -.23161382704621E-02
   193 -.20445840241854E-03
   194 0.34114630610466E-03
   195 0.59700639127623E-04
   196 -.37846363980271E-04
   197 -.21854275147353E-04
   198 0.94726387911993E-05
   199 -.13890190279783E-04
   200 0.12844892398601E-04
   201 -.33649891814411E-03
   202 0.18186534756443E-03
   203 0.15463357057969E-03
   204 -.32894846582767E-03
   205 0.24572864522109E-03
   206 0.40495314642407E-04
   207 0.12449367759681E-04
   208 -.95860195833752E-05
   209 0.27568430182078E-05
   210 -.18736461264413E-04
   211 0.19808905679968E-04
   212 -.11153403248120E-04
   213 0.20338817118888E-05
   214 -.69479108267252E-05
   215 0.74547102129152E-05
   216 0.15271100189301E-04
   217 0.56699432652339E-04
   218 -.20069719069257E-03
   219 0.57960537260876E-03
   220 0.31353564484539E-03
   221 -.86646854118844E-04
   222 0.18572613398810E-04
   223 0.44617733139258E-04
   224 0.38164166472374E-03
   225 0.11269529687929E-02
   226 0.67275993648806E-04
   227 0.63044514911669E-04
   228 0.26910433652387E-04
   229 0.44565265851414E-04
   230 0.38094707394178E-03
   231 0.11285281524098E-02
   232 0.57480132043282E-04
   233 0.44374241084106E-05
   234 -.77249768706921E-04
   235 0.44507503315271E-04
   236 0.39510387994443E-03
   237 -.37195431815088E-03
   238 0.21406402080074E-03
   239 0.31014624390817E-04
   240 -.38587664482390E-04
   241 0.11524245069703E-03
   242 0.67646093941353E-03
   243 -.13239487226506E-02
   244 0.14165752772179E-03
   245 0.29727950350871E-04
   246 -.30725646317289E-04
   247 0.31254871313040E-04
   248 0.74910902332866E-03
   249 0.39617122790043E-03
   250 0.82256977575118E-04
   251 -.16293344543997E-03
   252 0.84060065650650E-04
 Sym=     2a   
 Ene= -.19110338500436E+02
 Spin= Alpha
 Occup= 2.000000
     1 0.45112222902794E-05
     2 -.21475286317781E-04
     3 0.96766767768470E-04
     4 -.19608655325465E-04
     5 -.37151118487349E-02
     6 -.11341311767951E-03
     7 0.46482875078239E-04
     8 -.15207390974828E-04
     9 0.30425936807046E-03
    10 0.43577169986673E-04
    11 -.53868889152004E-04
    12 0.87798345940933E-04
    13 0.10290574412493E-03
    14 -.67173042239930E-04
    15 0.17140220717671E-04
    16 0.26990725979716E-05
    17 -.19839293315642E-04
    18 -.26624655533108E-04
    19 0.10055554969326E-04
    20 -.16829304983004E-04
    21 -.11765562024316E-04
    22 -.53842263282633E-04
    23 0.65607825306950E-04
    24 0.15690441181611E-03
    25 -.75752739660376E-04
    26 0.85619141981788E-04
    27 -.76897177638102E-05
    28 0.48367209908389E-05
    29 -.85243327701056E-05
    30 0.42307211188578E-05
    31 -.81322354643467E-05
    32 0.74646588430381E-05
    33 0.60861178697426E-05
    34 0.16430933101172E-05
    35 0.39719336790329E-05
    36 0.54101101908319E-05
    37 0.24875511767386E-04
    38 0.33519895242154E-04
    39 -.15375242374700E-03
    40 0.13637956995250E-02
    41 -.11856561588332E-02
    42 -.53377703421810E-04
    43 0.52825351759984E-06
    44 0.49130472923575E-05
    45 0.42852944182899E-04
    46 0.63232602364150E-03
    47 -.36058051577950E-03
    48 0.17140010893871E-02
    49 0.39145232765605E-03
    50 -.38695584893662E-03
    51 0.42442365049078E-04
    52 -.92510399593919E-05
    53 -.33191325089686E-04
    54 -.22918598297160E-04
    55 0.33639566277206E-05
    56 -.19291067204954E-04
    57 -.25930801797735E-03
    58 0.13434768784131E-03
    59 0.12496033013604E-03
    60 0.43826814986256E-04
    61 0.18040852811370E-04
    62 -.13722921646414E-04
    63 0.17654023355374E-04
    64 0.21513651756318E-05
    65 -.15574553379501E-04
    66 -.10406652381867E-04
    67 -.46426872476603E-05
    68 -.19027666888888E-05
    69 -.13278705397525E-04
    70 0.17563279813773E-05
    71 0.22798222734347E-04
    72 0.22761915877405E-05
    73 0.37900211135956E-04
    74 -.23355777670484E-03
    75 0.33301505580457E-03
    76 0.54350119576759E-02
    77 0.29664454746413E-02
    78 0.22005960455417E-03
    79 0.64245692072078E-03
    80 -.38351054718848E-03
    81 0.43810138643950E-02
    82 0.70127485127195E-02
    83 -.43789110962946E-02
    84 -.46459991456508E-02
    85 -.67999344315458E-02
    86 0.42856797466669E-02
    87 -.48776849909526E-04
    88 0.96655943651474E-04
    89 -.47879093741947E-04
    90 0.94692852371848E-04
    91 -.62411569166097E-04
    92 -.15622263756615E-03
    93 -.15651834944566E-02
    94 0.16245912643713E-02
    95 -.59407769914733E-04
    96 0.19146843147640E-02
    97 -.10265438365261E-02
    98 -.19614792767561E-02
    99 0.35561888839237E-04
   100 -.24106764170009E-04
   101 0.63060020064112E-04
   102 -.34626613546725E-04
   103 0.46059798814079E-04
   104 -.34981363193681E-04
   105 -.13084666964970E-04
   106 -.13717180773061E-04
   107 -.49622531721832E-04
   108 -.41833928366557E-05
   109 0.43508481780361E+00
   110 0.63947752534559E+00
   111 0.36857022329037E-01
   112 -.32625198443418E-01
   113 0.12873489276385E-01
   114 -.76561913805421E-03
   115 -.18458939505416E-02
   116 0.11158913674350E-02
   117 0.23370254653296E-02
   118 0.57098180457617E-02
   119 -.34475869560044E-02
   120 0.17701765087032E-03
   121 -.58147496658069E-03
   122 0.31041505719752E-03
   123 -.82965085372368E-04
   124 0.88050362273452E-04
   125 -.50852769010839E-05
   126 0.10595251051809E-03
   127 -.57537303912774E-04
   128 -.10921646195931E-03
   129 0.37965017353429E-03
   130 -.45795937339439E-03
   131 0.78309199860095E-04
   132 -.49053716794578E-03
   133 0.27861404184241E-03
   134 0.60520466789391E-03
   135 -.17617113567965E-04
   136 0.66563341221215E-05
   137 0.20825118018056E-04
   138 0.23392935012000E-04
   139 -.14697572736805E-04
   140 0.81149940906458E-05
   141 0.24290309118209E-06
   142 0.57671633899955E-05
   143 -.36054821807344E-04
   144 -.24576823471102E-04
   145 0.20937222532645E-04
   146 -.10296817179266E-03
   147 0.10586767836660E-02
   148 -.33835337514810E-02
   149 -.59852317819078E-02
   150 0.23781148683335E-04
   151 0.73479504982638E-04
   152 -.43762398584263E-04
   153 0.33734606888395E-02
   154 -.36473019077427E-04
   155 -.30787786512365E-03
   156 -.40184842987163E-02
   157 0.16822370139866E-02
   158 -.55604035203420E-03
   159 0.59812621105833E-04
   160 -.11434615654296E-04
   161 -.48378005451536E-04
   162 0.12858132356366E-05
   163 -.15124208182670E-04
   164 -.36633763447253E-04
   165 -.15186395100925E-04
   166 -.32867769004877E-03
   167 0.34386408514970E-03
   168 0.10260392038165E-02
   169 -.51780249930307E-03
   170 0.45371969157999E-03
   171 -.14756439826459E-04
   172 -.72721752271139E-05
   173 -.14759408980974E-05
   174 0.29718274435323E-05
   175 0.14761678462439E-04
   176 -.20555403079070E-05
   177 0.16826014091176E-04
   178 -.50050315711688E-05
   179 0.40357228152578E-05
   180 0.10517457440603E-04
   181 0.11185120671648E-04
   182 -.53662435327216E-04
   183 0.28007673846804E-03
   184 0.29117907493837E-02
   185 -.16131537085616E-02
   186 0.49037642495836E-04
   187 0.16415444798506E-04
   188 -.14077070566196E-04
   189 0.21562040184439E-02
   190 -.17648653340604E-02
   191 0.78664775987830E-03
   192 0.53967638886639E-03
   193 0.67310894626356E-03
   194 -.43294026925577E-03
   195 0.28959473527006E-04
   196 -.16212126746093E-04
   197 -.12747346780912E-04
   198 0.35841886695263E-05
   199 -.66382413170861E-05
   200 0.22770390039766E-05
   201 -.10038789452973E-03
   202 0.17422120779643E-03
   203 -.73833313266698E-04
   204 -.47383710027226E-03
   205 0.26506692451495E-03
   206 -.14838455593122E-03
   207 0.19780060178539E-04
   208 -.15534296907018E-05
   209 -.19014491065803E-05
   210 -.13218175625823E-04
   211 0.24560891539906E-05
   212 -.66579252036147E-05
   213 -.13319559869127E-04
   214 -.37194452198522E-06
   215 0.92089868784566E-05
   216 0.77261209317778E-08
   217 -.20478521772282E-04
   218 0.43393072415382E-03
   219 0.74198465836428E-03
   220 0.10274062575828E-04
   221 0.35525613090047E-04
   222 -.21065905780055E-04
   223 -.49442147522047E-04
   224 0.15438427413328E-03
   225 0.10723302570445E-02
   226 -.84983440616842E-04
   227 0.63693886873168E-04
   228 -.32070361389082E-04
   229 -.49552654388174E-04
   230 0.15447891120655E-03
   231 0.10717736962802E-02
   232 -.84424465721638E-04
   233 0.67482416825759E-04
   234 -.25340668737806E-04
   235 0.33802863990422E-05
   236 0.13180957250204E-02
   237 0.50179861310688E-03
   238 0.26062211535758E-03
   239 0.14285865430778E-03
   240 -.10634583119591E-03
   241 0.77351842910884E-04
   242 0.70310162753795E-03
   243 0.29480604727979E-03
   244 0.14114550333613E-03
   245 0.47976686570468E-04
   246 -.40925006594256E-04
   247 0.10958653889046E-03
   248 -.67929808397675E-04
   249 -.51267684595394E-04
   250 0.70960239139250E-04
   251 -.47298128350394E-04
   252 0.19804256217801E-04
 Sym=     3a   
 Ene= -.10299424076961E+02
 Spin= Alpha
 Occup= 2.000000
     1 -.60593621460311E-04
     2 0.13660154159639E-04
     3 -.31683730404977E-03
     4 -.13196940466526E-02
     5 -.10225847567378E-02
     6 0.18453675536374E-03
     7 -.77413731534016E-05
     8 -.13690343616557E-04
     9 0.94997178019391E-03
    10 -.91647205807483E-03
    11 0.42721564134640E-03
    12 -.10052157819510E-03
    13 0.37469549753030E-03
    14 -.20193615675210E-03
    15 -.81533630413118E-04
    16 0.11847121369237E-04
    17 0.69686509043881E-04
    18 0.57997829872398E-04
    19 -.13399560772680E-04
    20 0.45859492135066E-04
    21 -.63731409661376E-05
    22 0.34145710841511E-03
    23 -.33508396744897E-03
    24 -.43450515250983E-03
    25 0.17910098420041E-03
    26 -.56839353907108E-03
    27 -.82230329865103E-06
    28 -.13377490674784E-04
    29 0.85210005118913E-05
    30 -.51773317813968E-05
    31 0.24988983189901E-04
    32 -.12749199982431E-04
    33 0.62805674257404E-05
    34 -.70411960795891E-05
    35 0.13170781538914E-05
    36 0.38484065937357E-05
    37 -.21396451122075E-04
    38 -.21878298236412E-03
    39 0.24157036005467E-02
    40 -.63564951635990E-02
    41 0.51442530893628E-02
    42 -.40330032073991E-03
    43 0.49799889178403E-03
    44 -.24135823493865E-03
    45 0.24263109101911E-02
    46 -.30035013988435E-02
    47 0.14561295832866E-02
    48 0.14960743224093E-02
    49 0.22814278859156E-02
    50 -.14304006797794E-02
    51 -.52488329304845E-04
    52 0.53637354713605E-04
    53 -.11490254087593E-05
    54 -.11144099050814E-03
    55 0.67474943154924E-04
    56 -.30923338474230E-04
    57 0.25106996212860E-03
    58 -.55207098698030E-03
    59 0.30100102485170E-03
    60 0.11694186066281E-02
    61 -.62633951876100E-03
    62 0.59590525185420E-03
    63 -.98530999451325E-04
    64 0.12669806577100E-04
    65 -.85717840211232E-04
    66 0.15018244074682E-03
    67 -.50266359003366E-04
    68 0.26956267964228E-04
    69 -.17989233148330E-04
    70 0.33268029742464E-04
    71 0.88046282593840E-04
    72 -.12857733016649E-03
    73 0.46694347333899E+00
    74 0.60800274039847E+00
    75 0.39253362914527E-01
    76 -.19016741654515E-01
    77 0.11936555616189E-01
    78 0.52225439612919E-03
    79 0.19116780442047E-03
    80 -.15914299378265E-03
    81 0.10529392291269E-01
    82 0.66645628807474E-02
    83 -.47836276918291E-02
    84 -.73095098862578E-02
    85 -.10462750166138E-02
    86 0.13036489082589E-02
    87 0.84537899015076E-04
    88 0.58234657027967E-03
    89 -.66688446929474E-03
    90 0.19848269049721E-03
    91 -.26730437563824E-03
    92 -.12413176774387E-02
    93 -.29940182366980E-02
    94 0.25212428405303E-02
    95 0.47277539616773E-03
    96 -.77725217633760E-06
    97 0.28756402573519E-03
    98 -.19295214603883E-02
    99 -.28617355847695E-03
   100 0.71629296557546E-04
   101 0.96251912310889E-04
   102 0.43005341771558E-03
   103 -.19647945087006E-03
   104 0.97367924956193E-04
   105 -.46111299645090E-04
   106 0.10037866510016E-03
   107 -.22650341629109E-03
   108 -.44017216555064E-03
   109 -.80396650703478E-04
   110 -.29928805576505E-03
   111 0.32110149858501E-02
   112 -.12449006139429E-01
   113 -.90197350031094E-03
   114 -.27145917802676E-03
   115 -.48241403209339E-03
   116 0.29830444915184E-03
   117 0.34424791108992E-02
   118 0.64341151775935E-02
   119 -.39614449432376E-02
   120 0.13628553396228E-02
   121 -.20863112077512E-03
   122 -.15997587075749E-04
   123 -.14479354766406E-04
   124 -.67688724113133E-05
   125 0.21248227177719E-04
   126 0.32838091861829E-04
   127 -.13471228136560E-04
   128 0.20887491837641E-04
   129 0.64119405148578E-03
   130 -.82372188692022E-03
   131 0.18252783543445E-03
   132 -.11474387307643E-02
   133 0.66600546143201E-03
   134 0.11771111840820E-02
   135 -.10309842063086E-03
   136 0.22257373019480E-04
   137 0.59745519799666E-04
   138 0.11558283277093E-03
   139 -.51176648013822E-04
   140 0.37624249357263E-04
   141 0.22738213371158E-04
   142 0.21315248570546E-04
   143 -.11778127553113E-03
   144 -.94081181215494E-04
   145 0.56507110978341E-03
   146 0.86428073134510E-03
   147 -.13814377628024E-02
   148 0.16754554052420E-01
   149 -.11007553989179E-01
   150 0.14187128294738E-03
   151 -.76837388578487E-04
   152 0.29594810438074E-04
   153 0.26861785030326E-02
   154 0.43214706511757E-02
   155 -.27017490098793E-02
   156 -.21845285083446E-02
   157 0.18842877359983E-02
   158 -.85179982844077E-03
   159 -.50836570684626E-04
   160 0.27428653447375E-04
   161 0.23407917237250E-04
   162 -.53354993347261E-04
   163 0.39278501264969E-04
   164 0.70644689560952E-05
   165 0.34208876941232E-03
   166 0.85013845788899E-04
   167 -.42710261520122E-03
   168 -.55423873648928E-03
   169 0.20645460740471E-03
   170 -.39491125837773E-03
   171 -.15179499770474E-03
   172 0.78165965732264E-04
   173 -.40748917467924E-04
   174 0.10390987745154E-03
   175 -.13444746972015E-03
   176 0.12070906309871E-03
   177 0.99744482655788E-04
   178 0.29576821977591E-04
   179 -.66038653418021E-04
   180 0.31323125748270E-04
   181 0.41264791260066E-05
   182 -.30061990359078E-04
   183 0.72623080174637E-03
   184 -.57777535388912E-02
   185 -.11466936122179E-02
   186 0.17386381052795E-03
   187 -.18790358984807E-03
   188 0.89122420315233E-04
   189 -.43737316883460E-02
   190 0.28528041969046E-02
   191 -.11833284965879E-02
   192 -.26683073958204E-02
   193 -.10304836210629E-02
   194 0.84290192686645E-03
   195 -.34945095536379E-04
   196 0.25699587339135E-04
   197 0.92455081972439E-05
   198 -.21480613417410E-04
   199 0.16640504303055E-04
   200 -.11337803616496E-04
   201 -.38673890526375E-03
   202 0.10768751065961E-03
   203 0.27905139460413E-03
   204 0.88085536149322E-03
   205 -.42601262562899E-03
   206 0.30227610702442E-05
   207 -.61018445714548E-04
   208 -.37830078576784E-05
   209 0.19380349906183E-04
   210 0.43389909317624E-04
   211 0.65240356480230E-05
   212 0.10681707161840E-04
   213 0.38474926181842E-04
   214 -.14485980105121E-05
   215 -.36683175052614E-04
   216 -.11349664773480E-04
   217 -.14169201935806E-03
   218 -.14237640080570E-02
   219 0.10699789145631E-02
   220 0.11262696935133E-03
   221 -.20849648504434E-03
   222 0.10698150584130E-03
   223 0.41668301102466E-04
   224 0.82060830263130E-03
   225 0.28616953349182E-05
   226 -.52247198949255E-05
   227 -.19137751327939E-03
   228 0.57444270163129E-04
   229 0.42061919809836E-04
   230 0.82350450588069E-03
   231 0.20179794472341E-05
   232 0.17115704678887E-05
   233 -.14793827099135E-03
   234 0.13481398343758E-03
   235 0.21346272248988E-03
   236 -.15945166742790E-03