[Molden Format]
[Title]
                                                                                
[Atoms] AU
 c     1    6 -.35218818686032E+01 0.87727944340295E+00 -.21203222405814E+01
 c     2    6 -.19208619328250E+01 0.18588075503544E+00 0.11747461169593E+00
 c     3    6 -.28530137382626E+01 -.28915722255818E+00 0.24090857349599E+01
 c     4    6 0.85321404753072E+00 0.60157515579790E-01 -.39677681263130E+00
 o     5    8 0.17687022952380E+01 0.47662409080546E+00 -.24479833233584E+01
 o     6    8 0.22485272733752E+01 -.56252705777525E+00 0.16423469425519E+01
 c     7    6 0.49266117620094E+01 -.70536752278114E+00 0.12392753195924E+01
 h     8    1 -.29776045722245E+01 0.27188943707737E+01 -.28750604431810E+01
 h     9    1 -.55140115493741E+01 0.93043133282352E+00 -.16019001650359E+01
 h    10    1 -.32659945886628E+01 -.47709911721754E+00 -.36558434285711E+01
 h    11    1 -.48672056041599E+01 -.19324979321739E+00 0.27630853952557E+01
 h    12    1 -.16429732924082E+01 -.78206282489309E+00 0.39779829729035E+01
 h    13    1 0.56631195568448E+01 0.11132584136947E+01 0.61337956585607E+00
 h    14    1 0.57321287994491E+01 -.12222785954295E+01 0.30567821534842E+01
 h    15    1 0.53712434120732E+01 -.21307875676957E+01 -.17926260967303E+00
[GTO]
    1 0
 s    6 1.00
 0.13575349682000E+05 0.60645503603591E-03
 0.20352333680000E+04 0.46979088884982E-02
 0.46322562359000E+03 0.24332477647552E-01
 0.13120019598000E+03 0.97399968307759E-01
 0.42853015891000E+02 0.30195584253780E+00
 0.15584185766000E+02 0.66233609137875E+00
 s    2 1.00
 0.62067138508000E+01 0.65595308539952E+00
 0.25764896527000E+01 0.37585633285142E+00
 s    1 1.00
 0.57696339419000E+00 0.10000000000000E+01
 s    1 1.00
 0.22972831358000E+00 0.10000000000000E+01
 s    1 1.00
 0.95164440028000E-01 0.10000000000000E+01
 p    4 1.00
 0.34697232244000E+02 0.11327220003114E-01
 0.79582622826000E+01 0.76169659202087E-01
 0.23780826883000E+01 0.30192252202676E+00
 0.81433208183000E+00 0.72785027349547E+00
 p    1 1.00
 0.28887547253000E+00 0.10000000000000E+01
 p    1 1.00
 0.10056823671000E+00 0.10000000000000E+01
 d    1 1.00
 0.10970000000000E+01 0.10000000000000E+01
 d    1 1.00
 0.31800000000000E+00 0.10000000000000E+01
 f    1 1.00
 0.76100000000000E+00 0.10000000000000E+01
 
    2 0
 s    6 1.00
 0.13575349682000E+05 0.60645503603591E-03
 0.20352333680000E+04 0.46979088884982E-02
 0.46322562359000E+03 0.24332477647552E-01
 0.13120019598000E+03 0.97399968307759E-01
 0.42853015891000E+02 0.30195584253780E+00
 0.15584185766000E+02 0.66233609137875E+00
 s    2 1.00
 0.62067138508000E+01 0.65595308539952E+00
 0.25764896527000E+01 0.37585633285142E+00
 s    1 1.00
 0.57696339419000E+00 0.10000000000000E+01
 s    1 1.00
 0.22972831358000E+00 0.10000000000000E+01
 s    1 1.00
 0.95164440028000E-01 0.10000000000000E+01
 p    4 1.00
 0.34697232244000E+02 0.11327220003114E-01
 0.79582622826000E+01 0.76169659202087E-01
 0.23780826883000E+01 0.30192252202676E+00
 0.81433208183000E+00 0.72785027349547E+00
 p    1 1.00
 0.28887547253000E+00 0.10000000000000E+01
 p    1 1.00
 0.10056823671000E+00 0.10000000000000E+01
 d    1 1.00
 0.10970000000000E+01 0.10000000000000E+01
 d    1 1.00
 0.31800000000000E+00 0.10000000000000E+01
 f    1 1.00
 0.76100000000000E+00 0.10000000000000E+01
 
    3 0
 s    6 1.00
 0.13575349682000E+05 0.60645503603591E-03
 0.20352333680000E+04 0.46979088884982E-02
 0.46322562359000E+03 0.24332477647552E-01
 0.13120019598000E+03 0.97399968307759E-01
 0.42853015891000E+02 0.30195584253780E+00
 0.15584185766000E+02 0.66233609137875E+00
 s    2 1.00
 0.62067138508000E+01 0.65595308539952E+00
 0.25764896527000E+01 0.37585633285142E+00
 s    1 1.00
 0.57696339419000E+00 0.10000000000000E+01
 s    1 1.00
 0.22972831358000E+00 0.10000000000000E+01
 s    1 1.00
 0.95164440028000E-01 0.10000000000000E+01
 p    4 1.00
 0.34697232244000E+02 0.11327220003114E-01
 0.79582622826000E+01 0.76169659202087E-01
 0.23780826883000E+01 0.30192252202676E+00
 0.81433208183000E+00 0.72785027349547E+00
 p    1 1.00
 0.28887547253000E+00 0.10000000000000E+01
 p    1 1.00
 0.10056823671000E+00 0.10000000000000E+01
 d    1 1.00
 0.10970000000000E+01 0.10000000000000E+01
 d    1 1.00
 0.31800000000000E+00 0.10000000000000E+01
 f    1 1.00
 0.76100000000000E+00 0.10000000000000E+01
 
    4 0
 s    6 1.00
 0.13575349682000E+05 0.60645503603591E-03
 0.20352333680000E+04 0.46979088884982E-02
 0.46322562359000E+03 0.24332477647552E-01
 0.13120019598000E+03 0.97399968307759E-01
 0.42853015891000E+02 0.30195584253780E+00
 0.15584185766000E+02 0.66233609137875E+00
 s    2 1.00
 0.62067138508000E+01 0.65595308539952E+00
 0.25764896527000E+01 0.37585633285142E+00
 s    1 1.00
 0.57696339419000E+00 0.10000000000000E+01
 s    1 1.00
 0.22972831358000E+00 0.10000000000000E+01
 s    1 1.00
 0.95164440028000E-01 0.10000000000000E+01
 p    4 1.00
 0.34697232244000E+02 0.11327220003114E-01
 0.79582622826000E+01 0.76169659202087E-01
 0.23780826883000E+01 0.30192252202676E+00
 0.81433208183000E+00 0.72785027349547E+00
 p    1 1.00
 0.28887547253000E+00 0.10000000000000E+01
 p    1 1.00
 0.10056823671000E+00 0.10000000000000E+01
 d    1 1.00
 0.10970000000000E+01 0.10000000000000E+01
 d    1 1.00
 0.31800000000000E+00 0.10000000000000E+01
 f    1 1.00
 0.76100000000000E+00 0.10000000000000E+01
 
    5 0
 s    6 1.00
 0.27032382631000E+05 0.57227335211155E-03
 0.40523871392000E+04 0.44353233492995E-02
 0.92232722710000E+03 0.23020107706038E-01
 0.26124070989000E+03 0.92822490667928E-01
 0.85354641351000E+02 0.29378500009671E+00
 0.31035035245000E+02 0.67401604501641E+00
 s    2 1.00
 0.12260860728000E+02 0.63839937025506E+00
 0.49987076005000E+01 0.39534587125718E+00
 s    1 1.00
 0.11703108158000E+01 0.10000000000000E+01
 s    1 1.00
 0.46474740994000E+00 0.10000000000000E+01
 s    1 1.00
 0.18504536357000E+00 0.10000000000000E+01
 p    4 1.00
 0.63274954801000E+02 0.12018332222616E-01
 0.14627049379000E+02 0.83005421790056E-01
 0.44501223456000E+01 0.31991743925964E+00
 0.15275799647000E+01 0.70715542916104E+00
 p    1 1.00
 0.52935117943000E+00 0.10000000000000E+01
 p    1 1.00
 0.17478421270000E+00 0.10000000000000E+01
 d    1 1.00
 0.23140000000000E+01 0.10000000000000E+01
 d    1 1.00
 0.64500000000000E+00 0.10000000000000E+01
 f    1 1.00
 0.14280000000000E+01 0.10000000000000E+01
 
    6 0
 s    6 1.00
 0.27032382631000E+05 0.57227335211155E-03
 0.40523871392000E+04 0.44353233492995E-02
 0.92232722710000E+03 0.23020107706038E-01
 0.26124070989000E+03 0.92822490667928E-01
 0.85354641351000E+02 0.29378500009671E+00
 0.31035035245000E+02 0.67401604501641E+00
 s    2 1.00
 0.12260860728000E+02 0.63839937025506E+00
 0.49987076005000E+01 0.39534587125718E+00
 s    1 1.00
 0.11703108158000E+01 0.10000000000000E+01
 s    1 1.00
 0.46474740994000E+00 0.10000000000000E+01
 s    1 1.00
 0.18504536357000E+00 0.10000000000000E+01
 p    4 1.00
 0.63274954801000E+02 0.12018332222616E-01
 0.14627049379000E+02 0.83005421790056E-01
 0.44501223456000E+01 0.31991743925964E+00
 0.15275799647000E+01 0.70715542916104E+00
 p    1 1.00
 0.52935117943000E+00 0.10000000000000E+01
 p    1 1.00
 0.17478421270000E+00 0.10000000000000E+01
 d    1 1.00
 0.23140000000000E+01 0.10000000000000E+01
 d    1 1.00
 0.64500000000000E+00 0.10000000000000E+01
 f    1 1.00
 0.14280000000000E+01 0.10000000000000E+01
 
    7 0
 s    6 1.00
 0.13575349682000E+05 0.60645503603591E-03
 0.20352333680000E+04 0.46979088884982E-02
 0.46322562359000E+03 0.24332477647552E-01
 0.13120019598000E+03 0.97399968307759E-01
 0.42853015891000E+02 0.30195584253780E+00
 0.15584185766000E+02 0.66233609137875E+00
 s    2 1.00
 0.62067138508000E+01 0.65595308539952E+00
 0.25764896527000E+01 0.37585633285142E+00
 s    1 1.00
 0.57696339419000E+00 0.10000000000000E+01
 s    1 1.00
 0.22972831358000E+00 0.10000000000000E+01
 s    1 1.00
 0.95164440028000E-01 0.10000000000000E+01
 p    4 1.00
 0.34697232244000E+02 0.11327220003114E-01
 0.79582622826000E+01 0.76169659202087E-01
 0.23780826883000E+01 0.30192252202676E+00
 0.81433208183000E+00 0.72785027349547E+00
 p    1 1.00
 0.28887547253000E+00 0.10000000000000E+01
 p    1 1.00
 0.10056823671000E+00 0.10000000000000E+01
 d    1 1.00
 0.10970000000000E+01 0.10000000000000E+01
 d    1 1.00
 0.31800000000000E+00 0.10000000000000E+01
 f    1 1.00
 0.76100000000000E+00 0.10000000000000E+01
 
    8 0
 s    3 1.00
 0.34061341000000E+02 0.25439307208879E-01
 0.51235746000000E+01 0.19008594890375E+00
 0.11646626000000E+01 0.85244113011042E+00
 s    1 1.00
 0.32723041000000E+00 0.10000000000000E+01
 s    1 1.00
 0.10307241000000E+00 0.10000000000000E+01
 p    1 1.00
 0.80000000000000E+00 0.10000000000000E+01
 
    9 0
 s    3 1.00
 0.34061341000000E+02 0.25439307208879E-01
 0.51235746000000E+01 0.19008594890375E+00
 0.11646626000000E+01 0.85244113011042E+00
 s    1 1.00
 0.32723041000000E+00 0.10000000000000E+01
 s    1 1.00
 0.10307241000000E+00 0.10000000000000E+01
 p    1 1.00
 0.80000000000000E+00 0.10000000000000E+01
 
   10 0
 s    3 1.00
 0.34061341000000E+02 0.25439307208879E-01
 0.51235746000000E+01 0.19008594890375E+00
 0.11646626000000E+01 0.85244113011042E+00
 s    1 1.00
 0.32723041000000E+00 0.10000000000000E+01
 s    1 1.00
 0.10307241000000E+00 0.10000000000000E+01
 p    1 1.00
 0.80000000000000E+00 0.10000000000000E+01
 
   11 0
 s    3 1.00
 0.34061341000000E+02 0.25439307208879E-01
 0.51235746000000E+01 0.19008594890375E+00
 0.11646626000000E+01 0.85244113011042E+00
 s    1 1.00
 0.32723041000000E+00 0.10000000000000E+01
 s    1 1.00
 0.10307241000000E+00 0.10000000000000E+01
 p    1 1.00
 0.80000000000000E+00 0.10000000000000E+01
 
   12 0
 s    3 1.00
 0.34061341000000E+02 0.25439307208879E-01
 0.51235746000000E+01 0.19008594890375E+00
 0.11646626000000E+01 0.85244113011042E+00
 s    1 1.00
 0.32723041000000E+00 0.10000000000000E+01
 s    1 1.00
 0.10307241000000E+00 0.10000000000000E+01
 p    1 1.00
 0.80000000000000E+00 0.10000000000000E+01
 
   13 0
 s    3 1.00
 0.34061341000000E+02 0.25439307208879E-01
 0.51235746000000E+01 0.19008594890375E+00
 0.11646626000000E+01 0.85244113011042E+00
 s    1 1.00
 0.32723041000000E+00 0.10000000000000E+01
 s    1 1.00
 0.10307241000000E+00 0.10000000000000E+01
 p    1 1.00
 0.80000000000000E+00 0.10000000000000E+01
 
   14 0
 s    3 1.00
 0.34061341000000E+02 0.25439307208879E-01
 0.51235746000000E+01 0.19008594890375E+00
 0.11646626000000E+01 0.85244113011042E+00
 s    1 1.00
 0.32723041000000E+00 0.10000000000000E+01
 s    1 1.00
 0.10307241000000E+00 0.10000000000000E+01
 p    1 1.00
 0.80000000000000E+00 0.10000000000000E+01
 
   15 0
 s    3 1.00
 0.34061341000000E+02 0.25439307208879E-01
 0.51235746000000E+01 0.19008594890375E+00
 0.11646626000000E+01 0.85244113011042E+00
 s    1 1.00
 0.32723041000000E+00 0.10000000000000E+01
 s    1 1.00
 0.10307241000000E+00 0.10000000000000E+01
 p    1 1.00
 0.80000000000000E+00 0.10000000000000E+01
 
[MO]
 Sym=     1a   
 Ene= -.19170202088821E+02
 Spin= Alpha
 Occup= 2.000000
     1 0.61175409072168E-05
     2 -.29953912046154E-04
     3 0.33074869445366E-04
     4 0.20266417256517E-02
     5 -.37117485708648E-02
     6 0.63610911205046E-04
     7 -.18166112537816E-04
     8 0.50936512134000E-04
     9 0.83919179386238E-03
    10 -.25249561435350E-03
    11 0.72241080047845E-03
    12 -.12016349338720E-02
    13 0.26140287050877E-03
    14 -.62736048992450E-03
    15 0.48245219732840E-04
    16 -.27694616228494E-04
    17 -.20550603504347E-04
    18 -.14311167707500E-04
    19 0.25059943636433E-04
    20 -.48832057368472E-05
    21 -.19636265233704E-03
    22 0.56378135507297E-04
    23 0.13998451682975E-03
    24 -.18028530470548E-04
    25 0.17730504079265E-03
    26 -.42963285293416E-04
    27 -.15491645784954E-05
    28 -.83964826574176E-06
    29 -.31555262368873E-05
    30 -.28972793523329E-05
    31 -.87248178378592E-06
    32 0.17531732688940E-05
    33 0.49757017358432E-05
    34 0.19989881434189E-05
    35 0.24804094333844E-05
    36 -.22843244764216E-05
    37 0.23751818329793E-04
    38 -.11596566892758E-03
    39 0.82886892882199E-03
    40 -.98608054253134E-03
    41 0.59460733685707E-03
    42 -.50926503822326E-04
    43 -.20013809545479E-04
    44 0.10120001483221E-03
    45 0.53912095554472E-02
    46 0.20042373021212E-03
    47 -.28224746121032E-02
    48 -.33029549693576E-02
    49 -.80968378658220E-04
    50 0.15642815446619E-02
    51 0.28411187310914E-04
    52 -.55981733477802E-04
    53 0.27570546166887E-04
    54 -.21609760595132E-04
    55 0.48968882036137E-04
    56 -.30166173911146E-04
    57 0.11383873407653E-02
    58 0.16384690275153E-03
    59 -.13022342435168E-02
    60 0.31989150548576E-04
    61 -.50402632942796E-03
    62 0.48795693665863E-03
    63 0.10172117593869E-04
    64 -.10284075288300E-04
    65 0.21262711559475E-04
    66 -.75754311709010E-05
    67 0.94995261086273E-05
    68 -.47585822990809E-04
    69 -.60718966781062E-05
    70 0.42980087495917E-05
    71 0.19058901931036E-04
    72 0.76407782050732E-05
    73 0.12028759008544E-04
    74 -.57571816957190E-04
    75 0.19841348313246E-03
    76 0.31684123479659E-02
    77 -.22642260213290E-02
    78 0.25589737306845E-04
    79 -.61870856327759E-05
    80 0.15745283913348E-04
    81 0.18929489385324E-02
    82 0.47312560242605E-03
    83 -.26377146816690E-02
    84 0.29255861337439E-03
    85 -.29832612737515E-03
    86 0.11108374385611E-02
    87 0.31629348179047E-04
    88 -.28281660023746E-04
    89 -.33476881553011E-05
    90 -.33872691048018E-05
    91 -.12375238213147E-04
    92 -.63797588108931E-05
    93 -.34343814527130E-03
    94 -.70475043175141E-04
    95 0.41391318844644E-03
    96 0.13483289972730E-03
    97 -.43965753269190E-03
    98 -.99826805087133E-04
    99 0.13545001995298E-04
   100 -.91259301157418E-05
   101 -.61201080157980E-05
   102 -.10487724965233E-04
   103 -.11646956776171E-05
   104 -.91037538061505E-05
   105 -.76848021648818E-05
   106 0.13408415735644E-04
   107 0.17314740337930E-04
   108 0.26752032003631E-05
   109 0.41213512318616E-04
   110 -.22388321864902E-03
   111 -.12638535485867E-03
   112 0.42280599635095E-03
   113 0.15593256038451E-02
   114 -.62716199847578E-04
   115 -.48962750387322E-05
   116 0.43476506151302E-04
   117 0.69158174917456E-02
   118 -.20361602336542E-02
   119 0.57932087396750E-02
   120 -.41132311502440E-02
   121 0.13465579793186E-02
   122 -.40030605678723E-02
   123 0.39281728016123E-04
   124 -.14188606492606E-03
   125 0.10260433690993E-03
   126 -.81209574290982E-04
   127 0.24435404016471E-03
   128 -.98445710928731E-04
   129 -.14299824156325E-02
   130 -.27508522791931E-03
   131 0.17050676435518E-02
   132 -.47770373691190E-03
   133 0.23660330286854E-02
   134 -.83053942346134E-03
   135 0.32030743116231E-04
   136 0.94113967049498E-04
   137 0.44652849686294E-04
   138 -.71443754840953E-04
   139 -.33955966415049E-04
   140 0.56398578304246E-04
   141 0.28470003454317E-04
   142 -.92311170357864E-04
   143 -.11630666267683E-03
   144 -.55378797345243E-04
   145 -.24080599509313E-04
   146 -.35096773411597E-04
   147 -.18429026535111E-03
   148 0.15257037879393E-02
   149 -.96531625982529E-03
   150 -.59012314993569E-04
   151 -.31961792577886E-05
   152 0.35183849879481E-04
   153 0.31470476132101E-03
   154 -.17537891098207E-03
   155 0.60332170479927E-03
   156 0.90908883013970E-03
   157 -.24389638202491E-03
   158 0.66539443974930E-03
   159 0.28807674542700E-04
   160 -.34920619284161E-04
   161 0.61129447414602E-05
   162 -.31701371238163E-05
   163 -.15425000526477E-04
   164 -.10857858896527E-04
   165 -.18479125315805E-03
   166 0.82047777586595E-04
   167 0.10274347557146E-03
   168 0.12955156962681E-04
   169 0.60660855552375E-04
   170 -.11629683948592E-04
   171 0.51335767644268E-05
   172 -.63733552994094E-05
   173 -.35323059353551E-05
   174 0.22241549849625E-05
   175 0.95655983555442E-06
   176 -.37492033182422E-05
   177 -.91115709527456E-05
   178 0.75941935809883E-05
   179 0.84882890315102E-05
   180 0.51865265241642E-05
   181 0.43511729300241E+00
   182 0.63937810717259E+00
   183 0.37712863180562E-01
   184 -.32395065060112E-01
   185 0.71484273313910E-02
   186 0.65000013969347E-03
   187 0.38939864565836E-03
   188 -.18374910530432E-02
   189 -.92928673537587E-03
   190 -.12000171525996E-02
   191 0.52654694838847E-02
   192 -.17687721033157E-02
   193 0.18771351809153E-03
   194 -.11794239371545E-03
   195 0.16747060928162E-03
   196 -.14462456122812E-03
   197 -.22846048053508E-04
   198 -.57150873644115E-04
   199 0.98167341929355E-04
   200 -.47649830554941E-04
   201 -.95213463501131E-03
   202 0.87309945961829E-03
   203 0.79035175393021E-04
   204 0.33948150095629E-03
   205 -.57818313465396E-03
   206 0.30115452108391E-03
   207 -.90034935346533E-04
   208 0.11950201118131E-04
   209 -.11822125610097E-04
   210 0.32733584488291E-04
   211 0.52922616296438E-05
   212 0.42674483235195E-04
   213 0.88060956982496E-04
   214 -.21325138856605E-04
   215 -.26813437333564E-04
   216 -.25273711194137E-04
   217 0.26294397457093E-04
   218 -.13253272166351E-03
   219 -.18029768937802E-02
   220 0.72269595358797E-02
   221 -.31266389539580E-02
   222 0.19900648141978E-03
   223 -.10628542397363E-04
   224 -.29862956049959E-04
   225 -.54963870829960E-02
   226 0.22110594513973E-03
   227 0.11247470604739E-02
   228 -.41794289968081E-03
   229 0.63138523003836E-05
   230 0.12492265035965E-03
   231 0.28040719990556E-03
   232 -.14996629794735E-03
   233 -.13044090195821E-03
   234 -.26445993000682E-04
   235 -.76090522317342E-04
   236 0.77276477117088E-06
   237 0.16550760318094E-02
   238 -.94176284119409E-03
   239 -.71331319061532E-03
   240 -.17106305824432E-03
   241 -.41494099585201E-03
   242 -.32772069661956E-04
   243 -.20161490311154E-03
   244 -.22624734503463E-04
   245 -.41827390021381E-04
   246 0.14461932888671E-03
   247 0.34047498774073E-04
   248 0.69917116736902E-04
   249 0.12587544829395E-03
   250 -.36932321804961E-05
   251 -.13799784291380E-04
   252 -.23228461265723E-05
   253 -.38477519764919E-04
   254 0.97559847049751E-04
   255 0.35424044388645E-03
   256 0.22241021605603E-04
   257 0.68789864667003E-06
   258 -.24129015222896E-04
   259 0.47118682381118E-04
   260 0.30458105948101E-03
   261 -.20146219855335E-03
   262 0.28187717499803E-04
   263 0.11386472562548E-04
   264 -.56655950215473E-04
   265 -.38361720397022E-04
   266 0.98251775323975E-04
   267 0.35355964800106E-03
   268 0.22785471487083E-04
   269 0.68921901135696E-05
   270 -.22619806915756E-04
   271 0.98869675772820E-04
   272 0.76548073691761E-03
   273 -.71398032882872E-04
   274 0.16419201088386E-03
   275 0.48550084795054E-05
   276 -.80762561798391E-04
   277 0.13549778552417E-03
   278 0.65418040453980E-04
   279 -.44455831355244E-03
   280 -.72182751295946E-04
   281 0.70392181316027E-05
   282 -.21591634811859E-05
   283 0.48776674530844E-04
   284 0.38834484004519E-03
   285 0.10271276150317E-02
   286 0.64196096492097E-04
   287 0.56804389063850E-04
   288 -.22742228485895E-04
   289 0.45404370787384E-04
   290 -.26181882440640E-03
   291 0.77548860020468E-03
   292 0.31311638567530E-03
   293 -.52841743908723E-04
   294 0.10072713796314E-03
   295 0.48673661016502E-04
   296 0.38909320258080E-03
   297 0.10254354502151E-02
   298 0.54356432984842E-04
   299 -.49954097371997E-04
   300 -.48660515337003E-04
 Sym=     2a   
 Ene= -.19110825355560E+02
 Spin= Alpha
 Occup= 2.000000
     1 0.23590353724686E-05
     2 -.94040718254536E-05
     3 -.39705437826606E-03
     4 0.34051783112785E-02
     5 -.64543670348513E-02
     6 0.26010216794776E-04
     7 0.18713309107736E-05
     8 -.17234994969374E-04
     9 0.14473649732480E-02
    10 -.47959244873393E-03
    11 0.14245778168558E-02
    12 -.21274340141306E-03
    13 0.12941928799533E-03
    14 -.44714351353744E-03
    15 0.40687499000831E-04
    16 -.24872049126687E-04
    17 -.15815449874143E-04
    18 -.96141447614947E-05
    19 0.10448179308267E-04
    20 -.39252822500750E-05
    21 -.11652924381623E-03
    22 -.96522465005529E-04
    23 0.21305170882176E-03
    24 -.11081619536547E-03
    25 0.44528803412788E-03
    26 -.13852802379603E-03
    27 0.33722032373672E-05
    28 0.12504130676358E-04
    29 -.21280974024708E-05
    30 -.17557758465261E-04
    31 -.80174452445859E-05
    32 0.15132571901901E-04
    33 0.13033473061642E-04
    34 -.87586064705403E-05
    35 -.12277429629101E-04
    36 -.13155599992223E-04
    37 0.26555745404205E-04
    38 -.13150140095784E-03
    39 0.14547565180713E-02
    40 -.48866661235026E-02
    41 -.23673244848430E-02
    42 -.36249895902414E-04
    43 -.46489839736210E-05
    44 0.32418082425850E-04
    45 0.45250727986918E-02
    46 0.24000521089329E-03
    47 -.26656184201703E-02
    48 -.24815539572332E-02
    49 0.10485479744169E-02
    50 -.33834894915553E-02
    51 0.20303242486454E-04
    52 -.69392175308343E-04
    53 0.49088932821889E-04
    54 -.46248527710789E-05
    55 -.22566402482536E-04
    56 -.33294100958474E-04
    57 0.98368127059580E-03
    58 0.49539058168238E-03
    59 -.14790718522782E-02
    60 0.10388040222161E-03
    61 -.57371846531114E-03
    62 0.64828615770606E-03
    63 -.24400354687144E-05
    64 -.35670498424491E-05
    65 -.23931131666786E-05
    66 0.82655242663530E-05
    67 0.17467800640324E-05
    68 0.99446347419963E-06
    69 -.49918731610195E-05
    70 0.30389194920753E-05
    71 0.22162347569263E-05
    72 0.43318408842563E-05
    73 0.54952940920033E-05
    74 -.27207203090552E-04
    75 -.60936043426639E-04
    76 0.49684649700063E-02
    77 0.55751116712448E-03
    78 0.14569205535279E-04
    79 0.58790985788499E-06
    80 -.83548630584554E-05
    81 0.19178804330516E-02
    82 0.60853726178415E-03
    83 -.31985499591876E-02
    84 -.17525661823055E-02
    85 0.13759102102247E-03
    86 0.88369362187767E-04
    87 0.31715127080970E-04
    88 -.32796640901695E-04
    89 0.10815138207255E-05
    90 0.57348729270164E-05
    91 -.51358598828374E-04
    92 -.50565888933840E-05
    93 -.22258206165785E-03
    94 -.73237006954258E-04
    95 0.29581906861211E-03
    96 0.14859904911379E-03
    97 -.54358742525782E-03
    98 -.55300916110798E-04
    99 0.12572815913041E-04
   100 -.65681510840177E-05
   101 0.13610924924819E-04
   102 -.82065802155661E-05
   103 0.50038634961037E-05
   104 -.31381304288122E-04
   105 -.86616224145241E-05
   106 0.38082358901078E-05
   107 0.13120332266997E-04
   108 0.54919525154666E-05
   109 0.37207939839809E-04
   110 -.22975733641998E-03
   111 0.43002675828291E-03
   112 0.39095235192361E-02
   113 0.12428446587628E-02
   114 0.22776325020485E-03
   115 0.15257849143871E-03
   116 -.71175511632717E-03
   117 0.57950065041258E-02
   118 0.13753889418584E-02
   119 -.78034932148644E-02
   120 -.40413010324341E-02
   121 -.17336713179712E-02
   122 0.86205947669023E-02
   123 -.58484900796744E-04
   124 -.10890807075888E-03
   125 0.16739297155562E-03
   126 0.25693897868804E-04
   127 -.13267171206849E-03
   128 -.69162210116966E-04
   129 -.15600126191066E-02
   130 -.90548515536416E-03
   131 0.24654977744708E-02
   132 0.50840932003805E-03
   133 -.18645099691226E-02
   134 -.81604236417978E-03
   135 0.43924766424740E-04
   136 -.30902904813080E-04
   137 -.24735718359246E-05
   138 -.36036342016009E-04
   139 0.26551232544166E-05
   140 -.56540632119195E-04
   141 -.22894916156903E-04
   142 0.38805474264135E-04
   143 0.59859276982609E-04
   144 0.11036049733789E-04
   145 0.43508483363560E+00
   146 0.63946885590457E+00
   147 0.36933798442648E-01
   148 -.32760707653078E-01
   149 0.14155272017167E-01
   150 -.85144354826974E-03
   151 -.42037334521418E-03
   152 0.20431481002443E-02
   153 0.26918047575578E-02
   154 0.12676416160186E-02
   155 -.62087472203177E-02
   156 -.18134988829954E-03
   157 -.16695959957010E-03
   158 0.75600328598494E-03
   159 -.73813613480484E-04
   160 -.53666038315487E-04
   161 0.12747965179597E-03
   162 0.32038955308048E-04
   163 -.12690904468665E-03
   164 -.41327495901807E-04
   165 0.32215449375003E-03
   166 0.34812622925158E-03
   167 -.67028072300162E-03
   168 -.14035005190754E-03
   169 0.60560553305881E-03
   170 0.24287808134243E-03
   171 -.18893940348522E-04
   172 -.13123660914219E-04
   173 -.27211470221544E-04
   174 -.11457553231530E-04
   175 -.29100698550983E-05
   176 0.11261467553280E-04
   177 0.36806434220802E-04
   178 0.20517308605809E-04
   179 0.25246550756571E-04
   180 -.12217314669719E-04
   181 0.25165224403489E-04
   182 0.33014797965442E-04
   183 -.13076606434445E-03
   184 0.12597205194786E-02
   185 -.21537185430126E-02
   186 -.48995000882992E-04
   187 0.10264067950311E-04
   188 -.24087619199115E-04
   189 0.90241365269908E-04
   190 0.10957225510462E-03
   191 -.48310270524357E-03
   192 0.17831826039343E-02
   193 -.12859750197989E-03
   194 -.13346769506697E-03
   195 0.37518043794731E-04
   196 -.41158091643293E-04
   197 0.36400478485614E-05
   198 -.13380233164879E-04
   199 0.19266557867745E-04
   200 -.15543289025355E-04
   201 -.22352226373909E-03
   202 0.13216080777866E-03
   203 0.91361455960424E-04
   204 0.47998450995434E-04
   205 -.41039091615560E-04
   206 0.17211357522170E-04
   207 0.16250748391701E-04
   208 0.12938299255991E-04
   209 0.11749686427575E-04
   210 -.90289118785261E-05
   211 -.41037071300051E-05
   212 0.10872078010208E-05
   213 -.12773754974927E-04
   214 -.13254842859773E-04
   215 -.16851066340839E-04
   216 -.16955508736243E-05
   217 0.44033890184257E-05
   218 -.20841887603597E-04
   219 0.61517871373828E-04
   220 0.22453371566836E-03
   221 -.39796130633052E-02
   222 -.10938309398251E-03
   223 0.21061257071210E-04
   224 -.46316800323942E-04
   225 0.25744627612224E-03
   226 -.28764524784931E-05
   227 -.82995174540751E-04
   228 0.12355392993061E-03
   229 0.40546246501555E-04
   230 -.21243403515304E-03
   231 0.14595034912779E-04
   232 -.24466233142971E-04
   233 0.98711982301911E-05
   234 -.10351904804753E-04
   235 0.24273987618303E-04
   236 -.12825276575946E-04
   237 -.30914837881212E-05
   238 0.95169218796422E-04
   239 -.92077735008301E-04
   240 0.47485317742156E-04
   241 -.14439954942601E-03
   242 0.71067693673706E-04
   243 -.90339856350907E-05
   244 0.33661760990466E-05
   245 -.30782851473543E-06
   246 0.91026083805293E-05
   247 0.54486902412465E-06
   248 0.88025683895475E-05
   249 0.30177552121623E-05
   250 -.50610681731466E-05
   251 -.83895730989308E-05
   252 -.26656400692044E-06
   253 -.19499820207030E-04
   254 0.50446566675920E-04
   255 0.12769895206259E-02
   256 0.83129492105620E-04
   257 -.21503848403799E-04
   258 -.26386056818886E-04
   259 0.24521891291021E-04
   260 0.45403597586403E-03
   261 0.82961547159069E-03
   262 0.42733941769465E-04
   263 0.88211238470006E-05
   264 -.51814611328720E-04
   265 -.19375666580603E-04
   266 0.50331967525955E-04
   267 0.12777762514524E-02
   268 0.86436774330407E-04
   269 0.16729560404827E-04
   270 -.17211213948689E-04
   271 0.10930270352093E-03
   272 0.26581353817752E-03
   273 -.14250908796408E-02
   274 0.97545681006246E-04
   275 0.11342241351363E-05
   276 -.40777982863948E-04
   277 0.24972396693130E-04
   278 0.81105902019084E-03
   279 0.24693032539337E-03
   280 -.64871260349619E-04
   281 0.38577831558981E-04
   282 -.13356969289326E-03
   283 -.48241813817382E-04
   284 0.10608324881595E-03
   285 0.10931239868338E-02
   286 -.73296421050392E-04
   287 0.28435271247510E-04
   288 -.72843437864555E-04
   289 -.25061882223112E-04
   290 0.42353588264086E-03
   291 0.83536422597319E-03
   292 0.12444887120797E-04
   293 0.63811161673302E-05
   294 -.30477896479849E-04
   295 -.48018414499966E-04
   296 0.10576166664127E-03
   297 0.10932014260996E-02
   298 -.73822527716515E-04
   299 0.20611329850014E-04
   300 -.74631551592930E-04
 Sym=     3a   
 Ene= -.10297673583629E+02
 Spin= Alpha
 Occup= 2.000000
     1 -.13986878192939E-05
     2 -.27120364636659E-04
     3 0.10041962629931E-02
     4 -.60783830826547E-02
     5 0.10295602112416E-01
     6 0.16355482236190E-03
     7 -.29413613331242E-04
     8 0.60209621990689E-04
     9 -.38301619644804E-02
    10 0.93609081425916E-03
    11 -.24170060387117E-02
    12 -.20255670896233E-03
    13 -.45391857132823E-03
    14 0.19329855726507E-02
    15 -.17886498913580E-04
    16 0.19357808342860E-04
    17 -.14713094292798E-05
    18 0.62645012061365E-05
    19 -.88462273491407E-05
    20 0.72582166069110E-05
    21 -.30198761507027E-03
    22 0.26701687446801E-03
    23 0.34970740602256E-04
    24 0.31364034208958E-03
    25 -.10148511320744E-02
    26 0.17442280361312E-03
    27 -.14068528848364E-04
    28 -.16330663188398E-04
    29 0.31474112807735E-04
    30 0.22231928131478E-04
    31 0.21552399346741E-04
    32 -.60141893768690E-04
    33 -.33570160224629E-05
    34 0.35748445740603E-06
    35 0.17914940306935E-04
    36 0.17493493399258E-04
    37 0.54296938189663E-03
    38 0.90614696805288E-03
    39 -.33539279490751E-02
    40 0.26896362232874E-01
    41 -.10583897538523E-01
    42 0.24840479995767E-03
    43 -.43986436225885E-05
    44 -.74286310377110E-04
    45 0.41612007985425E-03
    46 -.10204267616464E-02
    47 0.40250314721910E-02
    48 0.59277569368981E-02
    49 -.15217365694313E-02
    50 0.40340266510932E-02
    51 0.14445589465061E-04
    52 0.24515883614932E-04
    53 -.38961473079993E-04
    54 0.13386157269355E-04
    55 -.47665735710313E-04
    56 0.24068192961794E-04
    57 -.13955034455790E-02
    58 -.12831472395031E-02
    59 0.26786506850821E-02
    60 -.14061150263363E-03
    61 0.50655353384180E-03
    62 -.12408259141703E-02
    63 -.15421914118136E-03
    64 0.28439654589500E-05
    65 -.33927836467904E-04
    66 0.13903265586001E-03
    67 0.20284249248055E-04
    68 0.99010006840542E-04
    69 0.67874034007882E-04
    70 -.24099829303179E-04
    71 -.53491037637504E-04
    72 0.42595619310472E-05
    73 -.15780975252812E-05