[Molden Format]
[Title]
                                                                                
[Atoms] AU
 c     1    6 0.99961348674245E+00 -.12623714923485E+01 -.10512852381225E+01
 c     2    6 -.13105112316668E+01 -.17945290888681E+01 0.58289835803278E+00
 c     3    6 -.31167859945898E+01 0.38574896317824E+00 0.97876746632326E+00
 o     4    8 -.46295519563489E+01 0.51225146867025E+00 0.26666082059780E+01
 o     5    8 -.29325039180825E+01 0.21759538695399E+01 -.84358124078404E+00
 c     6    6 0.27741802148302E+01 0.64704962961303E+00 0.10768361654610E+00
 o     7    8 0.25751172732098E+01 0.15558027479450E+01 0.21821490999151E+01
 o     8    8 0.46927643892481E+01 0.12265757517420E+01 -.14777076722634E+01
 h     9    1 0.20750953195953E+01 -.30036084351126E+01 -.13429976524498E+01
 h    10    1 0.46964177586197E+00 -.59484499275348E+00 -.29280446526898E+01
 h    11    1 -.77117910971771E+00 -.24522179204382E+01 0.24574582930355E+01
 h    12    1 -.24209145802504E+01 -.33097635979209E+01 -.28122668954587E+00
 h    13    1 -.41641599414888E+01 0.34728529036612E+01 -.43968414333773E+00
 h    14    1 0.57591942726575E+01 0.24411001930926E+01 -.61103775063794E+00
[GTO]
    1 0
 s    6 1.00
 0.13575349682000E+05 0.60645503603591E-03
 0.20352333680000E+04 0.46979088884982E-02
 0.46322562359000E+03 0.24332477647552E-01
 0.13120019598000E+03 0.97399968307759E-01
 0.42853015891000E+02 0.30195584253780E+00
 0.15584185766000E+02 0.66233609137875E+00
 s    2 1.00
 0.62067138508000E+01 0.65595308539952E+00
 0.25764896527000E+01 0.37585633285142E+00
 s    1 1.00
 0.57696339419000E+00 0.10000000000000E+01
 s    1 1.00
 0.22972831358000E+00 0.10000000000000E+01
 s    1 1.00
 0.95164440028000E-01 0.10000000000000E+01
 p    4 1.00
 0.34697232244000E+02 0.11327220003114E-01
 0.79582622826000E+01 0.76169659202087E-01
 0.23780826883000E+01 0.30192252202676E+00
 0.81433208183000E+00 0.72785027349547E+00
 p    1 1.00
 0.28887547253000E+00 0.10000000000000E+01
 p    1 1.00
 0.10056823671000E+00 0.10000000000000E+01
 d    1 1.00
 0.10970000000000E+01 0.10000000000000E+01
 d    1 1.00
 0.31800000000000E+00 0.10000000000000E+01
 f    1 1.00
 0.76100000000000E+00 0.10000000000000E+01
 
    2 0
 s    6 1.00
 0.13575349682000E+05 0.60645503603591E-03
 0.20352333680000E+04 0.46979088884982E-02
 0.46322562359000E+03 0.24332477647552E-01
 0.13120019598000E+03 0.97399968307759E-01
 0.42853015891000E+02 0.30195584253780E+00
 0.15584185766000E+02 0.66233609137875E+00
 s    2 1.00
 0.62067138508000E+01 0.65595308539952E+00
 0.25764896527000E+01 0.37585633285142E+00
 s    1 1.00
 0.57696339419000E+00 0.10000000000000E+01
 s    1 1.00
 0.22972831358000E+00 0.10000000000000E+01
 s    1 1.00
 0.95164440028000E-01 0.10000000000000E+01
 p    4 1.00
 0.34697232244000E+02 0.11327220003114E-01
 0.79582622826000E+01 0.76169659202087E-01
 0.23780826883000E+01 0.30192252202676E+00
 0.81433208183000E+00 0.72785027349547E+00
 p    1 1.00
 0.28887547253000E+00 0.10000000000000E+01
 p    1 1.00
 0.10056823671000E+00 0.10000000000000E+01
 d    1 1.00
 0.10970000000000E+01 0.10000000000000E+01
 d    1 1.00
 0.31800000000000E+00 0.10000000000000E+01
 f    1 1.00
 0.76100000000000E+00 0.10000000000000E+01
 
    3 0
 s    6 1.00
 0.13575349682000E+05 0.60645503603591E-03
 0.20352333680000E+04 0.46979088884982E-02
 0.46322562359000E+03 0.24332477647552E-01
 0.13120019598000E+03 0.97399968307759E-01
 0.42853015891000E+02 0.30195584253780E+00
 0.15584185766000E+02 0.66233609137875E+00
 s    2 1.00
 0.62067138508000E+01 0.65595308539952E+00
 0.25764896527000E+01 0.37585633285142E+00
 s    1 1.00
 0.57696339419000E+00 0.10000000000000E+01
 s    1 1.00
 0.22972831358000E+00 0.10000000000000E+01
 s    1 1.00
 0.95164440028000E-01 0.10000000000000E+01
 p    4 1.00
 0.34697232244000E+02 0.11327220003114E-01
 0.79582622826000E+01 0.76169659202087E-01
 0.23780826883000E+01 0.30192252202676E+00
 0.81433208183000E+00 0.72785027349547E+00
 p    1 1.00
 0.28887547253000E+00 0.10000000000000E+01
 p    1 1.00
 0.10056823671000E+00 0.10000000000000E+01
 d    1 1.00
 0.10970000000000E+01 0.10000000000000E+01
 d    1 1.00
 0.31800000000000E+00 0.10000000000000E+01
 f    1 1.00
 0.76100000000000E+00 0.10000000000000E+01
 
    4 0
 s    6 1.00
 0.27032382631000E+05 0.57227335211155E-03
 0.40523871392000E+04 0.44353233492995E-02
 0.92232722710000E+03 0.23020107706038E-01
 0.26124070989000E+03 0.92822490667928E-01
 0.85354641351000E+02 0.29378500009671E+00
 0.31035035245000E+02 0.67401604501641E+00
 s    2 1.00
 0.12260860728000E+02 0.63839937025506E+00
 0.49987076005000E+01 0.39534587125718E+00
 s    1 1.00
 0.11703108158000E+01 0.10000000000000E+01
 s    1 1.00
 0.46474740994000E+00 0.10000000000000E+01
 s    1 1.00
 0.18504536357000E+00 0.10000000000000E+01
 p    4 1.00
 0.63274954801000E+02 0.12018332222616E-01
 0.14627049379000E+02 0.83005421790056E-01
 0.44501223456000E+01 0.31991743925964E+00
 0.15275799647000E+01 0.70715542916104E+00
 p    1 1.00
 0.52935117943000E+00 0.10000000000000E+01
 p    1 1.00
 0.17478421270000E+00 0.10000000000000E+01
 d    1 1.00
 0.23140000000000E+01 0.10000000000000E+01
 d    1 1.00
 0.64500000000000E+00 0.10000000000000E+01
 f    1 1.00
 0.14280000000000E+01 0.10000000000000E+01
 
    5 0
 s    6 1.00
 0.27032382631000E+05 0.57227335211155E-03
 0.40523871392000E+04 0.44353233492995E-02
 0.92232722710000E+03 0.23020107706038E-01
 0.26124070989000E+03 0.92822490667928E-01
 0.85354641351000E+02 0.29378500009671E+00
 0.31035035245000E+02 0.67401604501641E+00
 s    2 1.00
 0.12260860728000E+02 0.63839937025506E+00
 0.49987076005000E+01 0.39534587125718E+00
 s    1 1.00
 0.11703108158000E+01 0.10000000000000E+01
 s    1 1.00
 0.46474740994000E+00 0.10000000000000E+01
 s    1 1.00
 0.18504536357000E+00 0.10000000000000E+01
 p    4 1.00
 0.63274954801000E+02 0.12018332222616E-01
 0.14627049379000E+02 0.83005421790056E-01
 0.44501223456000E+01 0.31991743925964E+00
 0.15275799647000E+01 0.70715542916104E+00
 p    1 1.00
 0.52935117943000E+00 0.10000000000000E+01
 p    1 1.00
 0.17478421270000E+00 0.10000000000000E+01
 d    1 1.00
 0.23140000000000E+01 0.10000000000000E+01
 d    1 1.00
 0.64500000000000E+00 0.10000000000000E+01
 f    1 1.00
 0.14280000000000E+01 0.10000000000000E+01
 
    6 0
 s    6 1.00
 0.13575349682000E+05 0.60645503603591E-03
 0.20352333680000E+04 0.46979088884982E-02
 0.46322562359000E+03 0.24332477647552E-01
 0.13120019598000E+03 0.97399968307759E-01
 0.42853015891000E+02 0.30195584253780E+00
 0.15584185766000E+02 0.66233609137875E+00
 s    2 1.00
 0.62067138508000E+01 0.65595308539952E+00
 0.25764896527000E+01 0.37585633285142E+00
 s    1 1.00
 0.57696339419000E+00 0.10000000000000E+01
 s    1 1.00
 0.22972831358000E+00 0.10000000000000E+01
 s    1 1.00
 0.95164440028000E-01 0.10000000000000E+01
 p    4 1.00
 0.34697232244000E+02 0.11327220003114E-01
 0.79582622826000E+01 0.76169659202087E-01
 0.23780826883000E+01 0.30192252202676E+00
 0.81433208183000E+00 0.72785027349547E+00
 p    1 1.00
 0.28887547253000E+00 0.10000000000000E+01
 p    1 1.00
 0.10056823671000E+00 0.10000000000000E+01
 d    1 1.00
 0.10970000000000E+01 0.10000000000000E+01
 d    1 1.00
 0.31800000000000E+00 0.10000000000000E+01
 f    1 1.00
 0.76100000000000E+00 0.10000000000000E+01
 
    7 0
 s    6 1.00
 0.27032382631000E+05 0.57227335211155E-03
 0.40523871392000E+04 0.44353233492995E-02
 0.92232722710000E+03 0.23020107706038E-01
 0.26124070989000E+03 0.92822490667928E-01
 0.85354641351000E+02 0.29378500009671E+00
 0.31035035245000E+02 0.67401604501641E+00
 s    2 1.00
 0.12260860728000E+02 0.63839937025506E+00
 0.49987076005000E+01 0.39534587125718E+00
 s    1 1.00
 0.11703108158000E+01 0.10000000000000E+01
 s    1 1.00
 0.46474740994000E+00 0.10000000000000E+01
 s    1 1.00
 0.18504536357000E+00 0.10000000000000E+01
 p    4 1.00
 0.63274954801000E+02 0.12018332222616E-01
 0.14627049379000E+02 0.83005421790056E-01
 0.44501223456000E+01 0.31991743925964E+00
 0.15275799647000E+01 0.70715542916104E+00
 p    1 1.00
 0.52935117943000E+00 0.10000000000000E+01
 p    1 1.00
 0.17478421270000E+00 0.10000000000000E+01
 d    1 1.00
 0.23140000000000E+01 0.10000000000000E+01
 d    1 1.00
 0.64500000000000E+00 0.10000000000000E+01
 f    1 1.00
 0.14280000000000E+01 0.10000000000000E+01
 
    8 0
 s    6 1.00
 0.27032382631000E+05 0.57227335211155E-03
 0.40523871392000E+04 0.44353233492995E-02
 0.92232722710000E+03 0.23020107706038E-01
 0.26124070989000E+03 0.92822490667928E-01
 0.85354641351000E+02 0.29378500009671E+00
 0.31035035245000E+02 0.67401604501641E+00
 s    2 1.00
 0.12260860728000E+02 0.63839937025506E+00
 0.49987076005000E+01 0.39534587125718E+00
 s    1 1.00
 0.11703108158000E+01 0.10000000000000E+01
 s    1 1.00
 0.46474740994000E+00 0.10000000000000E+01
 s    1 1.00
 0.18504536357000E+00 0.10000000000000E+01
 p    4 1.00
 0.63274954801000E+02 0.12018332222616E-01
 0.14627049379000E+02 0.83005421790056E-01
 0.44501223456000E+01 0.31991743925964E+00
 0.15275799647000E+01 0.70715542916104E+00
 p    1 1.00
 0.52935117943000E+00 0.10000000000000E+01
 p    1 1.00
 0.17478421270000E+00 0.10000000000000E+01
 d    1 1.00
 0.23140000000000E+01 0.10000000000000E+01
 d    1 1.00
 0.64500000000000E+00 0.10000000000000E+01
 f    1 1.00
 0.14280000000000E+01 0.10000000000000E+01
 
    9 0
 s    3 1.00
 0.34061341000000E+02 0.25439307208879E-01
 0.51235746000000E+01 0.19008594890375E+00
 0.11646626000000E+01 0.85244113011042E+00
 s    1 1.00
 0.32723041000000E+00 0.10000000000000E+01
 s    1 1.00
 0.10307241000000E+00 0.10000000000000E+01
 p    1 1.00
 0.80000000000000E+00 0.10000000000000E+01
 
   10 0
 s    3 1.00
 0.34061341000000E+02 0.25439307208879E-01
 0.51235746000000E+01 0.19008594890375E+00
 0.11646626000000E+01 0.85244113011042E+00
 s    1 1.00
 0.32723041000000E+00 0.10000000000000E+01
 s    1 1.00
 0.10307241000000E+00 0.10000000000000E+01
 p    1 1.00
 0.80000000000000E+00 0.10000000000000E+01
 
   11 0
 s    3 1.00
 0.34061341000000E+02 0.25439307208879E-01
 0.51235746000000E+01 0.19008594890375E+00
 0.11646626000000E+01 0.85244113011042E+00
 s    1 1.00
 0.32723041000000E+00 0.10000000000000E+01
 s    1 1.00
 0.10307241000000E+00 0.10000000000000E+01
 p    1 1.00
 0.80000000000000E+00 0.10000000000000E+01
 
   12 0
 s    3 1.00
 0.34061341000000E+02 0.25439307208879E-01
 0.51235746000000E+01 0.19008594890375E+00
 0.11646626000000E+01 0.85244113011042E+00
 s    1 1.00
 0.32723041000000E+00 0.10000000000000E+01
 s    1 1.00
 0.10307241000000E+00 0.10000000000000E+01
 p    1 1.00
 0.80000000000000E+00 0.10000000000000E+01
 
   13 0
 s    3 1.00
 0.34061341000000E+02 0.25439307208879E-01
 0.51235746000000E+01 0.19008594890375E+00
 0.11646626000000E+01 0.85244113011042E+00
 s    1 1.00
 0.32723041000000E+00 0.10000000000000E+01
 s    1 1.00
 0.10307241000000E+00 0.10000000000000E+01
 p    1 1.00
 0.80000000000000E+00 0.10000000000000E+01
 
   14 0
 s    3 1.00
 0.34061341000000E+02 0.25439307208879E-01
 0.51235746000000E+01 0.19008594890375E+00
 0.11646626000000E+01 0.85244113011042E+00
 s    1 1.00
 0.32723041000000E+00 0.10000000000000E+01
 s    1 1.00
 0.10307241000000E+00 0.10000000000000E+01
 p    1 1.00
 0.80000000000000E+00 0.10000000000000E+01
 
[MO]
 Sym=     1a   
 Ene= -.19182829291248E+02
 Spin= Alpha
 Occup= 2.000000
     1 0.11939245670006E-04
     2 -.57428807448009E-04
     3 0.57690590500813E-04
     4 0.29411136413109E-02
     5 -.23769695973058E-02
     6 0.11704484552157E-04
     7 0.53550394343680E-04
     8 0.12766170111205E-04
     9 0.18909740393847E-02
    10 0.14285177297623E-02
    11 0.53349010248177E-03
    12 0.10946679944612E-02
    13 0.13658279434111E-02
    14 -.59131549954001E-03
    15 0.22381447932252E-04
    16 -.15471823210781E-04
    17 -.69096247214717E-05
    18 0.58332646599815E-04
    19 -.20431789718115E-04
    20 0.99912145259768E-05
    21 -.25414540288027E-03
    22 0.31187111556193E-03
    23 -.57725712681654E-04
    24 -.22862427339090E-04
    25 0.60750349255148E-03
    26 0.31887298567564E-03
    27 -.20288535239508E-04
    28 0.59713708537331E-05
    29 -.24546089747608E-04
    30 0.13106155101521E-04
    31 -.18688431546679E-04
    32 0.15023947807408E-04
    33 0.14113771274143E-04
    34 0.10676996857994E-04
    35 0.17908087347070E-04
    36 0.35193496666939E-04
    37 0.19167755714884E-05
    38 -.92139920834389E-05
    39 -.91611615448509E-04
    40 0.19846218869385E-02
    41 -.19608607627030E-02
    42 0.93833381471860E-04
    43 0.14902372712269E-04
    44 0.87907608779333E-05
    45 0.26859702400814E-03
    46 0.42265050702483E-03
    47 -.74767789500790E-03
    48 -.85069354893994E-03
    49 -.19734094486582E-02
    50 -.17257188445353E-02
    51 0.42248714942290E-04
    52 -.26540298063665E-05
    53 -.39594685135923E-04
    54 0.51089553645374E-04
    55 0.13940486281221E-04
    56 -.31562521796181E-05
    57 -.33237357189025E-04
    58 0.11782201655413E-04
    59 0.21455155533613E-04
    60 -.26803990567659E-03
    61 -.26039707421676E-03
    62 0.22914401427504E-04
    63 0.58863888885428E-05
    64 -.30046252220483E-06
    65 -.59447186392071E-05
    66 -.89701075704460E-05
    67 -.35336344187619E-05
    68 0.27251015026632E-05
    69 0.10726881523774E-05
    70 0.39367471933666E-05
    71 0.52505754879632E-05
    72 0.26129683201178E-05
    73 -.17402072595780E-05
    74 0.84710831809374E-05
    75 0.11187423546707E-03
    76 -.77687545811293E-03
    77 0.60234702743156E-03
    78 -.23875548775690E-05
    79 0.12038704775378E-04
    80 -.12580344301859E-04
    81 -.14242402728429E-04
    82 0.22796861654714E-03
    83 -.35838062152444E-05
    84 0.27547715580176E-03
    85 -.89309375194276E-03
    86 0.62065892798955E-03
    87 0.63437779368536E-05
    88 -.15013933371695E-05
    89 -.48423845996841E-05
    90 0.27271061812253E-04
    91 -.15790611454880E-04
    92 0.10343789502651E-04
    93 -.39582351440658E-04
    94 0.10133831980556E-04
    95 0.29448519460102E-04
    96 -.25817972539089E-04
    97 0.20064382395615E-03
    98 0.10263973540039E-04
    99 0.10622852821442E-04
   100 -.94480906852391E-06
   101 0.23584779293566E-05
   102 -.15082513374310E-04
   103 0.26928720969125E-05
   104 -.54215801133405E-05
   105 0.83046076007810E-06
   106 -.14252777151258E-05
   107 0.22573499292559E-05
   108 0.27025844490253E-05
   109 0.91291820150663E-06
   110 0.74631802188252E-06
   111 -.15196368283843E-04
   112 0.18454220492803E-03
   113 0.31761907553700E-03
   114 0.61055141860991E-05
   115 0.15810642730317E-04
   116 0.95106030699272E-05
   117 0.37047513957388E-04
   118 -.89838943728053E-04
   119 -.13420712902600E-03
   120 0.15809913390732E-03
   121 0.14229577595389E-03
   122 -.19028672964195E-03
   123 0.13884892515319E-05
   124 0.64657805247540E-06
   125 -.20350673040073E-05
   126 0.32884847592129E-05
   127 0.10283959556779E-05
   128 0.10531330534907E-05
   129 -.13955495456617E-04
   130 -.72574169130190E-05
   131 0.21212912369636E-04
   132 -.15047326538317E-04
   133 -.14292846377476E-04
   134 0.47901340630321E-05
   135 -.96848902504727E-06
   136 0.84945093407038E-06
   137 -.16572008683162E-05
   138 0.95199786873855E-06
   139 0.30456910545332E-06
   140 0.21425362953800E-05
   141 0.34736650854236E-06
   142 -.14442271247326E-05
   143 0.80831980976000E-07
   144 -.22306155816225E-06
   145 0.58587582441069E-04
   146 0.82261061153105E-04
   147 0.25156076296384E-04
   148 -.66795542477920E-04
   149 0.50391552895584E-03
   150 -.57630321580616E-05
   151 0.10598151922998E-04
   152 -.19983030302349E-04
   153 0.88308333724334E-04
   154 -.94291874473438E-04
   155 0.91905198554284E-04
   156 0.12393497509210E-03
   157 -.26057505001717E-03
   158 -.54657396648549E-04
   159 0.49642557088336E-05
   160 -.44611176003703E-05
   161 -.50313810846327E-06
   162 0.39760309975575E-05
   163 -.72875393070795E-05
   164 0.26225197206497E-05
   165 -.28212135366124E-04
   166 0.18430084855891E-04
   167 0.97820505102321E-05
   168 -.15913402655261E-04
   169 0.41728310445768E-04
   170 -.24989557179018E-04
   171 -.33801159308478E-05
   172 0.36110443818187E-06
   173 0.14318991066721E-05
   174 0.29322211440906E-05
   175 0.72037416858491E-07
   176 -.26221699533238E-05
   177 0.16026802518329E-05
   178 -.55650985930942E-06
   179 0.70107570965969E-06
   180 -.17282877745483E-05
   181 0.42497254170699E-04
   182 -.22955540990638E-03
   183 -.28121403648373E-03
   184 0.19657465993795E-02
   185 -.25409840081671E-02
   186 -.29091174644890E-04
   187 -.30775332879234E-04
   188 -.49890737804018E-04
   189 0.61188084130030E-02
   190 0.24171354870663E-02
   191 -.38136232182247E-02
   192 -.47171390757062E-02
   193 -.70622956131822E-03
   194 0.52767377708499E-02
   195 0.11219599484694E-03
   196 -.11734930195265E-03
   197 0.51533071057068E-05
   198 0.12115758775918E-03
   199 -.22710601713337E-03
   200 -.67267121835049E-04
   201 0.81782998434884E-03
   202 -.10441761410075E-02
   203 0.22634615665863E-03
   204 0.11143366257789E-03
   205 -.21397855616392E-02
   206 -.10211305132012E-02
   207 -.15812731223615E-04
   208 -.51712107696458E-04
   209 0.17750654520594E-04
   210 -.33712094055571E-04
   211 0.13515131012427E-03
   212 -.91172687801172E-04
   213 0.54927099211132E-04
   214 -.65772237282830E-04
   215 0.67357685709274E-04
   216 -.56888218045320E-04
   217 -.43774074500527E-04
   218 -.44133439843878E-04
   219 -.31541452843497E-03
   220 0.21571471334370E-02
   221 -.29546912187158E-02
   222 -.15109477103240E-04
   223 -.39287692569342E-04
   224 -.75217065041989E-04
   225 0.38110621154782E-03
   226 0.77494539151318E-04
   227 -.31616854107054E-03
   228 0.71278391961220E-03
   229 0.51377899592394E-03
   230 -.14643577291549E-03
   231 0.30126906118761E-05
   232 -.13508848273854E-04
   233 0.10496157661978E-04
   234 0.33984104047051E-04
   235 -.16007471769717E-04
   236 0.23088573991148E-04
   237 -.32950240662987E-04
   238 0.72555750515159E-05
   239 0.25694665611471E-04
   240 -.14919717800100E-03
   241 -.80361339873106E-05
   242 -.77197116165758E-04
   243 0.19521240049408E-05
   244 0.43310779182312E-06
   245 -.24089827395533E-05
   246 0.94432734258858E-05
   247 -.63667838567494E-05
   248 0.96196934587395E-05
   249 -.12062322611220E-04
   250 0.57857087782886E-05
   251 -.63877039613805E-05
   252 0.82027826242748E-05
   253 0.43508544907273E+00
   254 0.63950477849942E+00
   255 0.36589971526854E-01
   256 -.29749572033670E-01
   257 0.12807094244418E-01
   258 -.61501690882079E-03
   259 0.44003088699134E-03
   260 0.17666430634196E-02
   261 0.30813202269790E-02
   262 0.38285992577896E-04
   263 -.43811286060458E-02
   264 -.82601338374165E-03
   265 -.23942990774674E-03
   266 0.79087277631587E-03
   267 0.48622331910006E-04
   268 -.43797673362522E-04
   269 -.48246585474844E-05
   270 0.98237386801353E-04
   271 -.67949765862495E-04
   272 0.10622418064992E-04
   273 -.29895468586820E-03
   274 0.30557873935848E-03
   275 -.66240534902714E-05
   276 -.53844008288204E-03
   277 0.50673283167584E-03
   278 -.10340481672439E-04
   279 0.13197234622010E-04
   280 -.83936643085979E-06
   281 0.39659920158075E-04
   282 -.47479438262652E-04
   283 -.52376011845331E-05
   284 -.52348963367433E-04
   285 0.29773490024755E-04
   286 0.63637294229934E-05
   287 -.86040310596844E-06
   288 -.59061542539099E-04
   289 -.81736624035507E-04
   290 -.19711582469946E-03
   291 0.14197630874460E-02
   292 0.71438868971785E-04
   293 -.34123170333393E-04
   294 -.39881030654049E-04
   295 -.20181263569852E-04
   296 -.16926455124894E-03
   297 0.62453519665525E-03
   298 0.72909736304232E-04
   299 0.98592664927328E-05
   300 -.85877673425426E-04
   301 -.40962443579786E-04
   302 0.74349738230452E-03
   303 0.46370751243528E-03
   304 0.10344380936722E-04
   305 0.85761220986013E-04
   306 -.74663153367260E-04
   307 0.36707094570466E-04
   308 0.57445318227929E-04
   309 -.11663623421943E-02
   310 -.46245183105785E-04
   311 0.16645643138503E-04
   312 0.36146953791306E-04
   313 -.84571584939433E-05
   314 0.22790098501998E-03
   315 0.23548057145121E-03
   316 0.27475251550006E-04
   317 -.47897594270614E-04
   318 0.15113071257051E-04
   319 0.83417079749971E-03
   320 0.11774739779541E-02
   321 -.48583063657665E-03
   322 -.55412970244081E-03
   323 -.63651968084089E-03
   324 -.46395946609593E-03
 Sym=     2a   
 Ene= -.19179397836945E+02
 Spin= Alpha
 Occup= 2.000000
     1 -.10207179630493E-05
     2 0.66131424944953E-05
     3 -.41648186052429E-03
     4 0.29985383406452E-02
     5 -.87925609919807E-02
     6 0.33779324342317E-04
     7 0.43404712063013E-04
     8 0.62786681322487E-05
     9 -.16096105418634E-02
    10 -.39633676818777E-03
    11 0.54724525003565E-03
    12 0.28256290884569E-02
    13 -.25738271167633E-03
    14 -.85991478731404E-03
    15 0.11640467605367E-04
    16 -.10557496473449E-06
    17 -.11534892640632E-04
    18 -.18601086679119E-04
    19 -.28044700423467E-04
    20 0.50268817924051E-05
    21 0.26332511754893E-03
    22 -.23713732365932E-03
    23 -.26187793889619E-04
    24 0.20253617519533E-03
    25 -.12632384992008E-03
    26 -.18543346293720E-03
    27 -.45514202836142E-05
    28 0.11948971704480E-04
    29 -.20622911991684E-04
    30 -.24201721491694E-05
    31 -.12658115543396E-04
    32 0.19879200655122E-04
    33 0.85265432381690E-05
    34 -.33731122520673E-05
    35 0.77893392093190E-05
    36 0.13271441618152E-04
    37 0.12312861517284E-04
    38 -.60148611486418E-04
    39 0.34069716338837E-03
    40 0.15781341723486E-02
    41 0.35973603697436E-02
    42 0.29601315452905E-04
    43 0.86130552389225E-04
    44 -.70703408771771E-04
    45 -.25903970411880E-02
    46 0.13428920623663E-02
    47 0.56246925831832E-03
    48 0.20888408475957E-02
    49 -.11436787446672E-03
    50 -.42355603483620E-02
    51 -.13927977496726E-04
    52 -.41119700593686E-06
    53 0.14339174502663E-04
    54 -.79231079162534E-04
    55 -.59564615090558E-04
    56 -.30280640483748E-05
    57 0.63435454486963E-04
    58 0.52749420733336E-03
    59 -.59092966182033E-03
    60 -.36405630300086E-05
    61 0.63815866286431E-03
    62 0.40972424981638E-03
    63 0.69488486785687E-06
    64 -.80636230434707E-05
    65 -.22327088302829E-04
    66 0.24031941271439E-05
    67 0.13395296888890E-04
    68 0.98399919656846E-05
    69 -.33354800077823E-05
    70 -.25768113268099E-05
    71 0.20114940345175E-04
    72 -.19538498890582E-04
    73 0.38449871478557E-04
    74 -.20947986355073E-03
    75 -.59407269359636E-03
    76 0.35619506576542E-02
    77 -.34871513664832E-02
    78 -.19559879837685E-04
    79 -.44212307358709E-04
    80 -.98998997125827E-04
    81 -.18716292258789E-03
    82 0.52532928270751E-02
    83 -.37990657573095E-02
    84 -.19056790863047E-02
    85 -.36343182339139E-02
    86 0.52385162048261E-02
    87 -.16368668375640E-03
    88 0.10860522276818E-03
    89 0.55081460988226E-04
    90 -.38868766633887E-04
    91 -.59633479372829E-04
    92 -.24960300923399E-03
    93 -.11900633356613E-02
    94 0.31794241314335E-03
    95 0.87212092251799E-03
    96 0.88803561102987E-03
    97 0.18897272096765E-03
    98 -.21788530431801E-02
    99 -.26979731115532E-05
   100 -.42254479316232E-05
   101 0.46032895372409E-04
   102 -.72418694860920E-04
   103 -.76644695430295E-04
   104 0.46437672150104E-04
   105 0.76038405628260E-04
   106 0.82313728716592E-04
   107 -.10819728210241E-03
   108 0.74829132239282E-07
   109 -.36634743483921E-04
   110 -.38791484426093E-04
   111 -.23076561128668E-03
   112 0.18146054109557E-02
   113 -.28054452632100E-02
   114 0.88688741472664E-04
   115 -.10061429407090E-04
   116 -.72464075995575E-04
   117 -.15163797644844E-03
   118 0.32298067968997E-03
   119 -.18174949052452E-03
   120 -.25821767434975E-03
   121 0.10046401814425E-02
   122 -.35592601133464E-03
   123 -.45646869250141E-05
   124 0.10391466853362E-04
   125 -.58267799283478E-05
   126 -.40756132826053E-04
   127 -.27987164828442E-04
   128 -.19957273270083E-04
   129 -.13767095240502E-04
   130 -.52843638659653E-04
   131 0.66610733900156E-04
   132 0.19748554420361E-03
   133 0.81848114971438E-04
   134 0.17199160714577E-04
   135 0.49106397683951E-05
   136 0.20266460863474E-05
   137 -.48540564941446E-05
   138 0.12683643927964E-05
   139 0.11980862489582E-04
   140 -.11868271540333E-06
   141 -.78566789938836E-05
   142 -.14699893538826E-04
   143 0.66310828879223E-05
   144 0.47033614701850E-06
   145 0.43508871055932E+00
   146 0.63949892983901E+00
   147 0.36599624860269E-01
   148 -.29822732689758E-01
   149 0.13429377026775E-01
   150 -.99134424087291E-03
   151 -.34738738907754E-03
   152 0.15472117833500E-02
   153 0.16069346613903E-02
   154 0.24253295064728E-02
   155 -.42217482218683E-02
   156 0.49649315991172E-03
   157 -.12504616817244E-02
   158 0.83197178163234E-03
   159 -.57706418954438E-04
   160 0.52704746460322E-04
   161 0.50016724941160E-05
   162 -.50678210297508E-04
   163 -.32666718230095E-04
   164 -.89471390370185E-04
   165 0.35840531137411E-03
   166 -.29866786251530E-03
   167 -.59737448858818E-04
   168 0.25004535492817E-03
   169 0.18932107232656E-03
   170 0.60327837886398E-03
   171 -.21430764105825E-04
   172 -.51444285928210E-05
   173 0.22294749445747E-04
   174 0.44912147863517E-04
   175 -.56862360333147E-04
   176 0.15121204446808E-04
   177 -.16159760653284E-04
   178 0.63764335556512E-04
   179 -.45032749628018E-04
   180 0.11100139773573E-04
   181 -.40352511220061E-05
   182 0.20335309263769E-04
   183 -.58943842405168E-04
   184 -.31289202876453E-03
   185 0.11489238935255E-02
   186 0.63173497147265E-04
   187 0.65868312992910E-06
   188 0.43033814505308E-04
   189 -.38826699716119E-03
   190 -.30372411449310E-03
   191 -.63921971218569E-03
   192 -.67714307716450E-03
   193 -.69028978535068E-04
   194 0.49585052367410E-03
   195 0.79269795333533E-05
   196 0.12600646040181E-04
   197 -.20527625573535E-04
   198 0.24634843444322E-05
   199 -.89904817284904E-05
   200 -.93573970497055E-05
   201 0.12655944182343E-03
   202 -.42431855542005E-04
   203 -.84127586281429E-04
   204 0.36348164253687E-04
   205 0.18786501967907E-03
   206 -.10633957324883E-03
   207 -.16931649132199E-04
   208 0.83523061696109E-05
   209 -.75766616744278E-06
   210 0.82917439861171E-05
   211 0.27427253419781E-05
   212 0.10548089870654E-05
   213 0.14424447072346E-04
   214 -.13948519960463E-04
   215 -.38293154273116E-07
   216 0.83027542702816E-05
   217 -.69576800840725E-05
   218 -.61978450124830E-05
   219 -.59411754182350E-04
   220 0.27290299755777E-03
   221 0.56190337070624E-03
   222 0.34189444810330E-05
   223 0.11766421416345E-04
   224 0.35562811423261E-04
   225 0.24013230276600E-04
   226 -.11680180984062E-03
   227 -.33280431509188E-03
   228 -.51777117700342E-03
   229 -.76174642943799E-04
   230 -.25517918431643E-03
   231 -.15894732246789E-04
   232 0.11119359657362E-04
   233 0.47753725894273E-05
   234 -.74435630198379E-05
   235 -.13437081774520E-04
   236 -.13494603895141E-05
   237 0.21850437901587E-04
   238 -.50932450086317E-04
   239 0.29082012184731E-04
   240 0.34122166862798E-04
   241 0.58701774907984E-04
   242 0.28225753799327E-04
   243 -.10415322181419E-08
   244 0.39494520325752E-06
   245 -.24006534885716E-05
   246 0.70279889286162E-06
   247 0.97526190336259E-06
   248 0.16323941066391E-05
   249 -.70140153075731E-06
   250 -.15051364964854E-05
   251 0.15884205278818E-05
   252 -.20485893468179E-05
   253 -.57808664719688E-04
   254 -.88600302345143E-04
   255 0.89350612592232E-05
   256 -.60563946054758E-05
   257 0.35940820756662E-03
   258 -.92661775162713E-05
   259 0.85174682269459E-05
   260 -.28582154185061E-05
   261 0.90937172908673E-05
   262 -.41820217194542E-04
   263 0.30166800810431E-04
   264 -.44788178466037E-04
   265 0.83705200700506E-04
   266 0.12490996358120E-03
   267 0.34448186645768E-05
   268 0.75910887498569E-07
   269 -.35207295520753E-05
   270 0.36456667741122E-06
   271 0.24783333863106E-05
   272 0.40568342270597E-06
   273 -.15104817453944E-04
   274 0.33831191174179E-06
   275 0.14766505542202E-04
   276 0.46479595802686E-05
   277 -.13292974839155E-04
   278 -.63634385138380E-06
   279 0.18793377463578E-05
   280 -.71551975997298E-06
   281 0.59175797671350E-06
   282 0.96732232922482E-06
   283 0.17166958451967E-05
   284 -.94737426734942E-06
   285 -.34887185013472E-05
   286 -.75672535167032E-06
   287 0.15344763005394E-06
   288 0.79396219093123E-06
   289 0.11018414479202E-04
   290 0.39080835487871E-03
   291 -.11526158180856E-03
   292 -.10624386497932E-04
   293 0.43503592046372E-04
   294 -.52956011188335E-04
   295 -.79122172422395E-04
   296 0.30977419237197E-03
   297 0.13973995482999E-02
   298 -.10300261523609E-04
   299 0.64711653130946E-04
   300 -.22837554174428E-04
   301 0.21026462022094E-04
   302 0.87577861233106E-03
   303 0.76030991187919E-03
   304 -.13408926355419E-03
   305 -.46390656214437E-04
   306 -.81892645708584E-04
   307 -.11182446335237E-03
   308 -.11981284782017E-02
   309 -.34367962409488E-03
   310 -.46206361734323E-04
   311 -.13389373876604E-03
   312 -.68864216146225E-04
   313 0.79267181583562E-03
   314 0.14955611871375E-02
   315 -.50430177695593E-03
   316 0.67780809190339E-03
   317 -.69175538590214E-03
   318 -.24977492136394E-03
   319 0.12359528407654E-04
   320 -.11787004174215E-03
   321 0.67325227705157E-04
   322 0.17970699524793E-04
   323 0.17846134786680E-05
   324 0.62988231042141E-05
 Sym=     3a   
 Ene= -.19125763867161E+02
 Spin= Alpha
 Occup= 2.000000
     1 0.19981341670458E-04
     2 -.97427273234266E-04
     3 0.48716284390340E-03
     4 0.52743614059272E-03
     5 0.27288842816319E-02
     6 -.20774086030267E-04
     7 0.46224217898369E-04
     8 0.11245617346274E-03
     9 0.24471196279004E-02
    10 0.14165648035930E-02
    11 0.27123545586333E-03
    12 -.17406192096899E-02
    13 -.18161044083582E-02
    14 0.19769470785087E-02