
   OpenMP run-time library returned nthreads =  4

 rdgrad (DESKTOP-T8QF9C0) : TURBOMOLE V7-8-1 24 Jan 2024 at 10:18:17 compiled  Jan 2024
 Copyright (C) 2024 TURBOMOLE GmbH, Karlsruhe


    2026-03-20 23:37:56.436 



                                 r d g r a d

                          gradient for ridft program 

                        by K.Eichkorn, O.Treutler, H.Oehm, 
                             M.Haeser and R.Ahlrichs
                  (Chemical Physics Letters 242 (1995) 652-660)
                    parallel version: M.v.Arnim  &  R.Ahlrichs
                            quantum chemistry group
                             university  karlsruhe
                                   germany




                          References             
                                                 
          Density Functional:                              
              O. Treutler and R. Ahlrichs                      
              Efficient Molecular Numerical Integration Schemes
              J. Chem. Phys. 102: 346 (1995)                   
          Parallel Version:                                
              Performance of parallel TURBOMOLE for Density    
              Functional Calculations                          
              M. v. Arnim and R. Ahlrichs                      
              J. Comp. Chem. 19: 1746 (1998)                   
          RI-J Method:                                     
              Auxiliary Basis Sets to approximate Coulomb      
              Potentials                                       
              Chem. Phys. Lett. 240: 283 (1995)                
              K. Eichkorn, O. Treutler, H. Oehm, M. Haeser     
              and R. Ahlrichs                                  
              Chem. Phys. Lett. 242: 652 (1995)                
                                                           
              Auxiliary Basis Sets for Main Row Atoms and their
              Use to approximate Coulomb Potentials            
              K. Eichkorn, F. Weigend, O. Treutler and         
              R. Ahlrichs                                      
              Theo. Chem. Acc. 97: 119 (1997)                  
          Relativistic Two-component ECP formalism             
              Efficient two-component self-consistent field    
              procedures and gradients: implementation in      
              TURBOMOLE and application to Au20-               
              A. Baldes and F. Weigend                         
              Mol. Phys. 111: 2617 (2013)                      
          Relativistic all-electron 2c calculations (X2C, DLU) 
              Efficient implementation of one- and two-component
              analytical energy gradients in exact two-component
              theory                                           
              Y. J. Franzke, N. Middendorf and F. Weigend      
              J. Chem. Phys. 148: 104110 (2018)                
          Exploitation of symmetry in scalar X2C response      
              NMR shielding tensors and chemical shifts in     
              scalar-relativistic local exact two-component    
              theory                                           
              Y. J. Franzke and F. Weigend                     
              J. Chem. Theory Comput. 15: 1028 (2019)          
                                                              





          OpenMP Shared-Memory Parallelization:  4 CPUs.

            By: Yannick J. Franzke and Christof Holzer
 

 integral neglect threshold       :  0.13E-10
 integral storage threshold THIZE :  0.10E-04
 integral storage threshold THIME :         5

 Becke-3-Parameter hybrid functional: B3-LYP
 exchange:    0.8*LDA + 0.72*B88 + 0.2*HF
 correlation: 0.19*LDA(VWN) + 0.81*LYP
 A Hybrid-DFT calculation using the RI-J approximation will be carried out.
  
  
 AUXILIARY BASIS SET information:

 symmetry group of the molecule :   c1 

 the group has the following generators :
   c1(z)

    1 symmetry operations found

 there are 1 real representations :   a   

 maximum number of shells which are related by symmetry :  1


    mo occupation :
   irrep   mo's   occupied
    a      222       23
 
 number of basis functions   :   222
 number of occupied orbitals :    23
 

 number of off-diagonal lagrangians expected :  0

 biggest AO integral is expected to be     7.998976882
  
           ------------------
           density functional
           ------------------
 Becke-3-Parameter hybrid functional: B3-LYP
 exchange:    0.8*LDA + 0.72*B88 + 0.2*HF
 correlation: 0.19*LDA(VWN) + 0.81*LYP
 iterations will be done with small grid
  
 spherical integration : Lebedev's spherical grid
 spherical gridsize    :                     3
    i.e. gridpoints    :                   302
  maximum batchsize    :                   100
 value for diffuse not defined
 radial integration    : Chebyshev 2nd kind (scaling 3)
 radial gridsize       :                     3
 integration cells     :                    12
 partition function    : becke
 partition sharpness   :                     3
  
  
           ------------------------
             RDGRAD - INFORMATION
           ------------------------
  
 Threshold for integral neglect (rithr1): 1E-10
 Threshold for integral neglect (rithr2): 1E-10
 Contributions to RI integral batches: 
  neglected integral batches:                   382
  direct contribution:                         3713
     
 ****************************************
 Memory allocated for RDGRAD: 2 MiB
 ****************************************
                                            
     

 nuclear repulsion energy  :   227.526808490    

  MOs are in ASCII format !


 reading orbital data $scfmo  from file mos
 orbital characterization : scfconv=7
  Deviation of MOs from orthonormality   1.154006890047299E-010
  W A R N I N G 

    ----------------------------------------
     S+T+V CONTRIBUTIONS TO ENERGY GRADIENT 
    ----------------------------------------

 1e-integral 1st. derivatives will be neglected if expon. factor < 0.265682E-13


 setting up bound for integral derivative estimation

 increment for numerical differentiation : 0.00050000

 biggest AO integral is expected to be     7.998976882
 biggest cartesian 1st derivative AO integral is expected to be    17.678530758

 biggest 1-particle AO density matrix element is expected to be    0.9418666009

 setting up bound for integral derivative estimation

 increment for numerical differentiation : 0.00050000

 biggest AO integral is expected to be     7.998976882
 biggest cartesian 1st derivative AO integral is expected to be    17.678530758

 2e-integral 1st. derivatives will be neglected if expon. factor < 0.100000E-06
 outer boundary for 2e-integral derivative neglection is 0.187875E-07

          Overall gridpoints after grid construction =         58792

 Integrated ground state density     :   45.99997406070385    


          ------------------------------------------------
           cartesian gradient of the energy (hartree/bohr)
          ------------------------------------------------

  ATOM      1 c           2 o           3 c           4 o           5 c 
dE/dx  0.2484887D-04 -0.1286832D-04  0.4336134D-04  0.7496989D-05 -0.3286848D-04
dE/dy -0.8773739D-06  0.7297188D-04  0.9374293D-04  0.4434325D-04 -0.1535551D-04
dE/dz  0.5330274D-06 -0.3838734D-04 -0.5448312D-04 -0.2291264D-04  0.1345753D-04

  ATOM      6 c           7 h           8 h           9 h          10 h 
dE/dx  0.5028628D-05 -0.3113965D-04 -0.5106135D-05 -0.4123154D-05 -0.2613054D-06
dE/dy -0.1984712D-04 -0.4294662D-04 -0.2185635D-04 -0.5109176D-05 -0.6476032D-04
dE/dz  0.1402478D-04  0.2567112D-04 -0.6411702D-05  0.1762162D-04  0.3470865D-04

  ATOM     11 h          12 h 
dE/dx -0.5338475D-04  0.5235492D-04
dE/dy -0.1641322D-04  0.1039107D-05
dE/dz  0.1566076D-04 -0.4444570D-06
 
 resulting FORCE  (fx,fy,fz) = (-.666D-05,0.249D-04,-.962D-06)
 resulting MOMENT (mx,my,mz) = (0.422D-04,0.617D-04,-.235D-06)


 exx =       0.000094 eyy =       0.000221 ezz =       0.000053
 eyz =      -0.000162 exz =      -0.000173 exy =       0.000233


 **********************************************************************
  |maximum component of gradient| : 0.93742934E-04  (atom  3 c )       
   gradient norm                  : 0.20434469E-03
 **********************************************************************
   ***  cartesian gradients written onto <gradient>  ***


     --- calculation of the energy gradient finished ---



    ------------------------------------------------------------------------
         total  cpu-time :  15.12 seconds
         total wall-time :   4.25 seconds
    ------------------------------------------------------------------------

   ****  rdgrad : all done  ****


    2026-03-20 23:38:00.672 

 rdgrad ended normally

 statpt (DESKTOP-T8QF9C0) : TURBOMOLE V7-8-1 24 Jan 2024 at 10:18:17 compiled  Jan 2024
 Copyright (C) 2024 TURBOMOLE GmbH, Karlsruhe


    2026-03-20 23:38:00.753 



                           this is S T A T P T   


                     hessian and coordinate update for
                          stationary point search 

                     by barbara unterreiner, marek sierka,
                           and reinhart ahlrichs

                          quantum chemistry group
                          universitaet  karlsruhe
                                  germany




              +--------------------------------------------------+
              | Atomic coordinate, charge and isotop information |
              +--------------------------------------------------+

                    atomic coordinates            atom    charge  isotop
          4.13069682   -1.24554155    0.18474484    c      6.000     0
          1.46196684   -1.51017775    0.59189781    o      8.000     0
          0.00265502    0.37179662   -0.32628032    c      6.000     0
          0.83317973    2.18648471   -1.43001513    o      8.000     0
         -2.70203206   -0.12748229    0.21928834    c      6.000     0
         -4.49111276    1.47390081   -0.51018287    c      6.000     0
          4.98741684   -2.90560650    1.03819876    h      1.000     0
          4.83016914    0.47250327    1.07970058    h      1.000     0
          4.54882857   -1.16875730   -1.83026693    h      1.000     0
         -3.13151183   -1.85132657    1.23434209    h      1.000     0
         -6.46671640    1.11997694   -0.11735018    h      1.000     0
         -4.00353802    3.18423528   -1.52344710    h      1.000     0
 
       center of nuclear mass  :    0.00859644    0.17817992   -0.21748008
       center of nuclear charge:    0.01667528    0.15429396   -0.20474655
  Keyword $statpt not found - using default options
 
        ***************  Stationary point options ******************
        ************************************************************
           Maximum allowed trust radius:           3.000000E-01
           Minimum allowed trust radius:           1.000000E-03
           Initial trust radius:                   1.500000E-01
           GDIIS used if gradient norm <           1.000000E-02
           Number of previous steps for GDIIS:       5
           Hessian update method:                  BFGS
                        *** Convergence criteria ***                
           Threshold for energy change:            1.000000E-06
           Threshold for max displacement element: 1.000000E-03
           Threshold for max gradient element :    1.000000E-03
           Threshold for RMS of displacement:      5.000000E-04
           Threshold for RMS of gradient:          5.000000E-04
        ************************************************************
 

  Keyword $statp missing in file <control>

  Keyword $statpt not found - using default options
  *************************************************************************
   ATOM                      CARTESIAN COORDINATES
    1 c       4.13069681811337     -1.24554155429333      0.18474483833404
    2 o       1.46196683972996     -1.51017775465025      0.59189780920349
    3 c       0.00265501509541      0.37179661765297     -0.32628031672624
    4 o       0.83317973188386      2.18648471374639     -1.43001512982723
    5 c      -2.70203205552706     -0.12748229187916      0.21928833634512
    6 c      -4.49111276310315      1.47390080804896     -0.51018287138059
    7 h       4.98741684216433     -2.90560649888871      1.03819875717970
    8 h       4.83016914279849      0.47250327419848      1.07970058157315
    9 h       4.54882856869001     -1.16875729688744     -1.83026692966050
   10 h      -3.13151183089523     -1.85132657007604      1.23434209465490
   11 h      -6.46671640024828      1.11997694409249     -0.11735018329531
   12 h      -4.00353801897566      3.18423527811401     -1.52344709692819
  *************************************************************************
   ATOM                      CARTESIAN GRADIENTS  
    1 c       0.00002484887187     -0.00000087737389      0.00000053302745
    2 o      -0.00001286832432      0.00007297187713     -0.00003838733834
    3 c       0.00004336133721      0.00009374293441     -0.00005448311682
    4 o       0.00000749698870      0.00004434325190     -0.00002291263916
    5 c      -0.00003286848172     -0.00001535550682      0.00001345753476
    6 c       0.00000502862791     -0.00001984711878      0.00001402477521
    7 h      -0.00003113965490     -0.00004294662281      0.00002567111650
    8 h      -0.00000510613500     -0.00002185634607     -0.00000641170249
    9 h      -0.00000412315417     -0.00000510917572      0.00001762162325
   10 h      -0.00000026130543     -0.00006476032225      0.00003470864540
   11 h      -0.00005338474504     -0.00001641322188      0.00001566076198
   12 h       0.00005235491922      0.00000103910710     -0.00000044445701
  *************************************************************************

  norm of actual CARTESIAN gradient:  2.04345E-04

  ENERGY =    -306.4282394992 a.u.; # of cycle =   21

  Approximate Hessian read from $hessapprox data section

  Hessian updated according to BFGS formula
  Number of zero Hessian eigenvalues:   6
  Number of structures for GDIIS interpolation:    5
  GDIIS step:     0.001948

      ****************************************************************** 
                          CONVERGENCE INFORMATION

                               Converged?     Value      Criterion
             Energy change         yes      0.0000003   0.0000010
             RMS of displacement   yes      0.0003247   0.0005000
             RMS of gradient       yes      0.0000341   0.0005000
             MAX displacement      yes      0.0007388   0.0010000
             MAX gradient          yes      0.0000937   0.0010000
      ****************************************************************** 


    ------------------------------------------------------------------------
         total  cpu-time :   0.03 seconds
         total wall-time :   0.05 seconds
    ------------------------------------------------------------------------

   ****  statpt : all done  ****


    2026-03-20 23:38:00.785 

  statpt ended normally

   OpenMP run-time library returned nthreads =  4

 ridft (DESKTOP-T8QF9C0) : TURBOMOLE V7-8-1 24 Jan 2024 at 10:18:17 compiled  Jan 2024
 Copyright (C) 2024 TURBOMOLE GmbH, Karlsruhe


    2026-03-20 23:38:00.868 



                                  r i d f t

                        DFT program with RI approximation 
                                for coulomb part 





                                 References:     
                                                 
          TURBOMOLE:                             
              R. Ahlrichs, M. Baer, M. Haeser, H. Horn, and
              C. Koelmel
              Electronic structure calculations on workstation
              computers: the program system TURBOMOLE
              Chem. Phys. Lett. 162: 165 (1989)
          Density Functional:                              
              O. Treutler and R. Ahlrichs                      
              Efficient Molecular Numerical Integration Schemes
              J. Chem. Phys. 102: 346 (1995)                   
          Parallel Version:                                
              Performance of parallel TURBOMOLE for Density    
              Functional Calculations                          
              M. v. Arnim and R. Ahlrichs                      
              J. Comp. Chem. 19: 1746 (1998)                   
          RI-J Method:                                     
              Auxiliary Basis Sets to approximate Coulomb      
              Potentials                                       
              Chem. Phys. Lett. 240: 283 (1995)                
              K. Eichkorn, O. Treutler, H. Oehm, M. Haeser     
              and R. Ahlrichs                                  
              Chem. Phys. Lett. 242: 652 (1995)                
                                                           
              Auxiliary Basis Sets for Main Row Atoms and their
              Use to approximate Coulomb Potentials            
              K. Eichkorn, F. Weigend, O. Treutler and         
              R. Ahlrichs                                      
              Theo. Chem. Acc. 97: 119 (1997)                  
                                                           
              Accurate Coulomb-fitting basis sets for H to Rn 
              F. Weigend                                       
              Phys. Chem. Chem. Phys. 8: 1057 (2006)           
                                                           
          Multipole accelerated RI-J (MARI-J):             
              Fast evaluation of the Coulomb potential for     
              electron densities using multipole accelerated   
              resolution of identity approximation             
              M. Sierka, A. Hogekamp and R. Ahlrichs           
              J. Chem. Phys. 118: 9136 (2003)                  
          RI-JK Method:                                     
              A fully direct RI-HF algorithm: Implementation,
              optimised auxiliary basis sets, demonstration of
              accuracy and efficiency                         
              F. Weigend                                      
              Phys. Chem. Chem. Phys. 4: 4285 (2002)           
          Two-component HF and DFT with spin-orbit coupling:  
              Self-consistent treatment of spin-orbit         
              interactions with efficient Hartree-Fock and    
              density functional methods                      
              M. K. Armbruster, F. Weigend, C. van Wüllen and 
              W. Klopper                                      
              Phys. Chem. Chem. Phys. 10: 1748 (2008)         
          Two-component difference density and DIIS algorithm 
              Efficient two-component self-consistent field   
              procedures and gradients: implementation in     
              TURBOMOLE and application to Au20-              
              A. Baldes, F. Weigend                           
              Mol. Phys. 111: 2617 (2013)                     
          Relativistic current density functional theory      
              Current density functional framework for        
              spin-orbit coupling                             
              C. Holzer, Y. J. Franzke, A. Pausch             
              J. Chem. Phys. 157: 204102 (2022)               
          Relativistic all-electron 2c calculations           
              An efficient implementation of two-component    
              relativistic exact-decoupling methods for large 
              molecules                                       
              D. Peng, N. Middendorf, F. Weigend, M. Reiher   
              J. Chem. Phys. 138: 184105 (2013)               
          Finite nucleus model and SNSO approximation         
              Efficient implementation of one- and two-       
              component analytical energy gradients in exact  
              two-component theory                            
              Y. J. Franzke, N. Middendorf, F. Weigend        
              J. Chem. Phys. 148: 104110 (2018)               
          Grids for all-electron relativistic methods         
              Error-consistent segmented contracted all-      
              electron relativistic basis sets of double-     
              and triple-zeta quality for NMR shielding       
              constants                                       
              Y. J. Franzke, R. Tress, T. M. Pazdera,         
              F. Weigend                                      
              Phys. Chem. Chem. Phys. 21: 166658 (2019)       
          Seminumerical exchange algorithms                   
              Seminumerical calculation of the Hartree-Fock   
              exchange matirx: Application to two-component   
              procedures and efficient evaluation of local    
              hybrid functionsl                               
              P. Plessow, F. Weigend,                         
              J. Comput. Chem. 33: 810 (2012)                 
          Improved seminumerical algorithms                   
              C. Holzer,                                      
              J. Chem. Phys. 153 (2020), 184115               






          OpenMP Shared-Memory Parallelization:  4 CPUs.

            By: Christof Holzer and Yannick J. Franzke


              +--------------------------------------------------+
              |      general information about current run       |
              +--------------------------------------------------+

 
 Becke-3-Parameter hybrid functional: B3-LYP
 exchange:    0.8*LDA + 0.72*B88 + 0.2*HF
 correlation: 0.19*LDA(VWN) + 0.81*LYP
 A Hybrid-DFT calculation using the RI-J approximation will be carried out.
 Allocatable memory for RI due to $ricore (MB):                  5000


              +--------------------------------------------------+
              | Atomic coordinate, charge and isotop information |
              +--------------------------------------------------+

                    atomic coordinates            atom    charge  isotop
          4.13060965   -1.24527806    0.18459093    c      6.000     0
          1.46211198   -1.51067011    0.59208959    o      8.000     0
          0.00257083    0.37117311   -0.32594442    c      6.000     0
          0.83276958    2.18600491   -1.42969385    o      8.000     0
         -2.70201401   -0.12775415    0.21944388    c      6.000     0
         -4.49076268    1.47389757   -0.51021642    c      6.000     0
          4.98753072   -2.90518665    1.03795256    h      1.000     0
          4.82976924    0.47289431    1.07966253    h      1.000     0
          4.54849211   -1.16845344   -1.83049959    h      1.000     0
         -3.13173676   -1.85139188    1.23444100    h      1.000     0
         -6.46649903    1.12071578   -0.11774912    h      1.000     0
         -4.00283972    3.18405427   -1.52344720    h      1.000     0
 
       center of nuclear mass  :    0.00857544    0.17792946   -0.21735189
       center of nuclear charge:    0.01665634    0.15407699   -0.20463544

              +--------------------------------------------------+
              |               basis set information              |
              +--------------------------------------------------+

              we will work with the 1s 3p 5d 7f 9g ... basis set
              ...i.e. with spherical basis functions...

   type   atoms  prim   cont   basis
   ---------------------------------------------------------------------------
    c        4     46     31   def2-TZVP   [5s3p2d1f|11s6p2d1f]
    o        2     46     31   def2-TZVP   [5s3p2d1f|11s6p2d1f]
    h        6      8      6   def2-TZVP   [3s1p|5s1p]
   ---------------------------------------------------------------------------
   total:   12    324    222
   ---------------------------------------------------------------------------

   total number of primitive shells          :   46
   total number of contracted shells         :   90
   total number of cartesian basis functions :  252
   total number of SCF-basis functions       :  222


 integral neglect threshold       :  0.13E-10
 integral storage threshold THIZE :  0.10E-04
 integral storage threshold THIME :         5

 RI-J AUXILIARY BASIS SET information:

              we will work with the 1s 3p 5d 7f 9g ... basis set
              ...i.e. with spherical basis functions...

   type   atoms  prim   cont   basis
   ---------------------------------------------------------------------------
    c        4     70     49   def2-TZVP   [6s4p3d1f1g|12s5p4d2f1g]
    o        2     70     49   def2-TZVP   [6s4p3d1f1g|12s5p4d2f1g]
    h        6     16     11   def2-TZVP   [3s1p1d|5s2p1d]
   ---------------------------------------------------------------------------
   total:   12    516    360
   ---------------------------------------------------------------------------

   total number of primitive shells          :   56
   total number of contracted shells         :  120
   total number of cartesian basis functions :  438
   total number of SCF-basis functions       :  360


 symmetry group of the molecule :   c1 

 the group has the following generators :
   c1(z)

    1 symmetry operations found

 there are 1 real representations :   a   

 maximum number of shells which are related by symmetry :  1

  
           ------------------
           density functional
           ------------------
 Becke-3-Parameter hybrid functional: B3-LYP
 exchange:    0.8*LDA + 0.72*B88 + 0.2*HF
 correlation: 0.19*LDA(VWN) + 0.81*LYP
 iterations will be done with small grid
  
 spherical integration : Lebedev's spherical grid
 spherical gridsize    :                     3
    i.e. gridpoints    :                   302
  maximum batchsize    :                   100
 value for diffuse not defined
 radial integration    : Chebyshev 2nd kind (scaling 3)
 radial gridsize       :                     3
 integration cells     :                    12
 partition function    : becke
 partition sharpness   :                     3
  

 biggest AO integral is expected to be     7.998976882

          ------------------------
          nuclear repulsion energy  :   227.535030913    
          ------------------------


         -----------------
         -S,T+V- integrals
         -----------------

 1e-integrals will be neglected if expon. factor < 0.132618E-11
 
 Difference densities algorithm switched on.
 The maximal number of linear combinations of
 difference densities is  20.

 DIIS switched on: error vector is FDS-SDF
 Max. Iterations for DIIS is     :   4
 DIIS matrix (see manual) 
    Scaling factor of diagonals  :  1.200
    threshold for scaling factor :  0.000

 scf convergence criterion : increment of total energy < .1000000D-06
                  and increment of one-electron energy < .1000000D-03

 MOs are in ASCII format !


    mo occupation :
   irrep   mo's   occupied
    a      222       23
 
 number of basis functions   :   222
 number of occupied orbitals :    23
 

 reading orbital data $scfmo  from file mos
 orbital characterization : scfconv=7
 mo-orthogonalization by Cholesky decomposition

 automatic virtual orbital shift switched on 
      shift if e(lumo)-e(homo) < 0.10000000    

  
           ------------------------
               RI-J - INFORMATION
           ------------------------
 Contributions to RI integral batches: 
  neglected integral batches:                   382
  direct contribution:                            0
  memory contribution:                  3713
 Memory core needed for (P|Q) and Cholesky      1 MByte
 Memory core minimum needed except of (P|Q)     1 MByte
 Total minimum memory core needed (sum)         2 MByte
  
 ****************************************
 Memory allocated for RI-J   102 MByte
 ****************************************
                                            

 DSCF restart information will be dumped onto file mos


 Starting SCF iterations

          Overall gridpoints after grid construction =         15771

 ITERATION  ENERGY          1e-ENERGY        2e-ENERGY     NORM[dD(SAO)]  TOL
   1  -306.42825611962    -867.28693548     333.32364845    0.000D+00 0.132D-10
                            Exc = -33.1132126340     Coul =  374.296300070    
                            exK = -7.85943898423    
                              N = 45.999779809    
                            current damping = 0.300
 
          max. resid. norm for Fia-block=  8.761D-05 for orbital     17a         
          max. resid. fock norm         =  1.890D-03 for orbital    220a         

 ITERATION  ENERGY          1e-ENERGY        2e-ENERGY     NORM[dD(SAO)]  TOL
   2  -306.42825619625    -867.28733758     333.32405047    0.354D-03 0.839D-11
                            Exc = -33.1132310916      Eck =  366.437281563    
                              N = 45.999779834    
                            current damping = 0.300
 
          Norm of current diis error: 0.34683E-03
          max. resid. norm for Fia-block=  3.436D-05 for orbital     23a         
          max. resid. fock norm         =  4.384D-04 for orbital    220a         

 ENERGY CONVERGED !

          Overall gridpoints after grid construction =         58791

 ITERATION  ENERGY          1e-ENERGY        2e-ENERGY     NORM[dD(SAO)]  TOL
   3  -306.42823960599    -867.28698278     333.32371226    0.163D-03 0.680D-11
                            Exc = -33.1132233958      Eck =  366.436935659    
                              N = 45.999973981    
                            current damping = 0.350
 
          Norm of current diis error: 0.41453E-03
          max. resid. norm for Fia-block=  1.447D-05 for orbital     23a         
          max. resid. fock norm         =  1.005D-04 for orbital    220a         

 End of SCF iterations

   convergence criteria satisfied after     3 iterations


                  ------------------------------------------ 
                 |  total energy      =   -306.42823960599  |
                  ------------------------------------------ 
                 :  kinetic energy    =    305.14245259854  :
                 :  potential energy  =   -611.57069220453  :
                 :  virial theorem    =      1.99580395394  :
                 :  wavefunction norm =      0.99999999990  :
                  .......................................... 


 orbitals $scfmo  will be written to file mos

    irrep                 19a         20a         21a         22a         23a   
 eigenvalues H         -0.38855    -0.36313    -0.31096    -0.29202    -0.28362
            eV         -10.5731     -9.8813     -8.4618     -7.9464     -7.7178
 occupation              2.0000      2.0000      2.0000      2.0000      2.0000

    irrep                 24a         25a         26a         27a         28a   
 eigenvalues H         -0.05571     0.05115     0.06758     0.07086     0.07831
            eV          -1.5160      1.3919      1.8390      1.9282      2.1310
 
 
 
 
 ==============================================================================
                           electrostatic moments
 ==============================================================================

 reference point for electrostatic moments:    0.00000   0.00000   0.00000

 
              nuc           elec       ->  total
 ------------------------------------------------------------------------------
                          charge      
 ------------------------------------------------------------------------------
          46.000000     -46.000000       0.000000
 
 ------------------------------------------------------------------------------
                       dipole moment  
 ------------------------------------------------------------------------------
   x       0.766192      -0.906783      -0.140591
   y       7.087542      -7.621978      -0.534436
   z      -9.413230       9.728295       0.315065
 
   | dipole moment | =     0.6361 a.u. =     1.6169 debye 
 
 ------------------------------------------------------------------------------
                     quadrupole moment
 ------------------------------------------------------------------------------
  xx     426.365869    -446.618649     -20.252780
  yy     104.599905    -132.837559     -28.237654
  zz      31.301843     -59.035733     -27.733890
  xy    -103.320581     101.133771      -2.186810
  xz      17.219423     -16.639720       0.579703
  yz     -46.577663      47.469310       0.891646
 
     1/3  trace=     -25.408108
     anisotropy=       8.816415
 
 ==============================================================================
 
HOMO-LUMO Separation
 HOMO         :   -0.28362199 H =     -7.71775 eV
 LUMO         :   -0.05571045 H =     -1.51596 eV
 HOMO-LUMO gap:    0.22791154 H =     +6.20179 eV
 
 ==============================================================================


    ------------------------------------------------------------------------
         total  cpu-time :  15.05 seconds
         total wall-time :   4.48 seconds
    ------------------------------------------------------------------------

   ****  ridft : all done  ****


    2026-03-20 23:38:05.337 

 ridft ended normally
