[Molden Format]
[Title]
                                                                                
[Atoms] AU
 c     1    6 -.47136573830925E+01 -.61099668333853E+00 0.61111601524270E+00
 c     2    6 -.19593301109790E+01 0.10523185051529E+00 0.10602032250748E+01
 n     3    7 -.30001264746814E+00 -.11924837216373E+01 -.72402903032191E+00
 c     4    6 0.23730582299716E+01 -.12433796358841E+01 -.62929506721560E-01
 c     5    6 0.37300487692392E+01 0.13176515915837E+01 -.95868470406900E-02
 n     6    7 0.63939074065998E+01 0.97032195353000E+00 0.64935011635183E+00
 n     7    7 -.54780171773980E+01 -.10917176444960E-01 -.19880091893127E+01
 h     8    1 -.49691656393853E+01 -.26160275728474E+01 0.10832788262359E+01
 h     9    1 -.58952829860842E+01 0.48964150933289E+00 0.18990140380594E+01
 h    10    1 -.17898904487648E+01 0.21760556785255E+01 0.97651766235914E+00
 h    11    1 -.14229701156734E+01 -.48067965340696E+00 0.29694166364464E+01
 h    12    1 -.52820087605355E+00 -.42872745847568E+00 -.24664215412384E+01
 h    13    1 0.25787112798968E+01 -.21393653567658E+01 0.17871884307576E+01
 h    14    1 0.33375010943313E+01 -.24764363332602E+01 -.14191899002666E+01
 h    15    1 0.34320146329881E+01 0.22692143915918E+01 -.18388339118732E+01
 h    16    1 0.28796488968752E+01 0.25254878606123E+01 0.14334301909415E+01
 h    17    1 0.72767668698437E+01 0.26550731114075E+01 0.86161051933684E+00
 h    18    1 0.73206047146856E+01 0.20835783302530E-01 -.73370009050790E+00
 h    19    1 -.48815961010644E+01 -.13882261060231E+01 -.31783911322406E+01
 h    20    1 -.73841365187454E+01 0.57727857410040E-01 -.21400761431986E+01
[GTO]
    1 0
 s    6 1.00
 0.13575349682000E+05 0.60645503603591E-03
 0.20352333680000E+04 0.46979088884982E-02
 0.46322562359000E+03 0.24332477647552E-01
 0.13120019598000E+03 0.97399968307759E-01
 0.42853015891000E+02 0.30195584253780E+00
 0.15584185766000E+02 0.66233609137875E+00
 s    2 1.00
 0.62067138508000E+01 0.65595308539952E+00
 0.25764896527000E+01 0.37585633285142E+00
 s    1 1.00
 0.57696339419000E+00 0.10000000000000E+01
 s    1 1.00
 0.22972831358000E+00 0.10000000000000E+01
 s    1 1.00
 0.95164440028000E-01 0.10000000000000E+01
 p    4 1.00
 0.34697232244000E+02 0.11327220003114E-01
 0.79582622826000E+01 0.76169659202087E-01
 0.23780826883000E+01 0.30192252202676E+00
 0.81433208183000E+00 0.72785027349547E+00
 p    1 1.00
 0.28887547253000E+00 0.10000000000000E+01
 p    1 1.00
 0.10056823671000E+00 0.10000000000000E+01
 d    1 1.00
 0.10970000000000E+01 0.10000000000000E+01
 d    1 1.00
 0.31800000000000E+00 0.10000000000000E+01
 f    1 1.00
 0.76100000000000E+00 0.10000000000000E+01
 
    2 0
 s    6 1.00
 0.13575349682000E+05 0.60645503603591E-03
 0.20352333680000E+04 0.46979088884982E-02
 0.46322562359000E+03 0.24332477647552E-01
 0.13120019598000E+03 0.97399968307759E-01
 0.42853015891000E+02 0.30195584253780E+00
 0.15584185766000E+02 0.66233609137875E+00
 s    2 1.00
 0.62067138508000E+01 0.65595308539952E+00
 0.25764896527000E+01 0.37585633285142E+00
 s    1 1.00
 0.57696339419000E+00 0.10000000000000E+01
 s    1 1.00
 0.22972831358000E+00 0.10000000000000E+01
 s    1 1.00
 0.95164440028000E-01 0.10000000000000E+01
 p    4 1.00
 0.34697232244000E+02 0.11327220003114E-01
 0.79582622826000E+01 0.76169659202087E-01
 0.23780826883000E+01 0.30192252202676E+00
 0.81433208183000E+00 0.72785027349547E+00
 p    1 1.00
 0.28887547253000E+00 0.10000000000000E+01
 p    1 1.00
 0.10056823671000E+00 0.10000000000000E+01
 d    1 1.00
 0.10970000000000E+01 0.10000000000000E+01
 d    1 1.00
 0.31800000000000E+00 0.10000000000000E+01
 f    1 1.00
 0.76100000000000E+00 0.10000000000000E+01
 
    3 0
 s    6 1.00
 0.19730800647000E+05 0.58626402628763E-03
 0.29578958745000E+04 0.45428820586397E-02
 0.67322133595000E+03 0.23558413450084E-01
 0.19068249494000E+03 0.94709193292923E-01
 0.62295441898000E+02 0.29719784913376E+00
 0.22654161182000E+02 0.66916246895232E+00
 s    2 1.00
 0.89791477428000E+01 0.64596683630063E+00
 0.36863002370000E+01 0.38700574393705E+00
 s    1 1.00
 0.84660076805000E+00 0.10000000000000E+01
 s    1 1.00
 0.33647133771000E+00 0.10000000000000E+01
 s    1 1.00
 0.13647653675000E+00 0.10000000000000E+01
 p    4 1.00
 0.49200380510000E+02 0.11448825101764E-01
 0.11346790537000E+02 0.78422337970864E-01
 0.34273972411000E+01 0.30818094738830E+00
 0.11785525134000E+01 0.72027196368413E+00
 p    1 1.00
 0.41642204972000E+00 0.10000000000000E+01
 p    1 1.00
 0.14260826011000E+00 0.10000000000000E+01
 d    1 1.00
 0.16540000000000E+01 0.10000000000000E+01
 d    1 1.00
 0.46900000000000E+00 0.10000000000000E+01
 f    1 1.00
 0.10930000000000E+01 0.10000000000000E+01
 
    4 0
 s    6 1.00
 0.13575349682000E+05 0.60645503603591E-03
 0.20352333680000E+04 0.46979088884982E-02
 0.46322562359000E+03 0.24332477647552E-01
 0.13120019598000E+03 0.97399968307759E-01
 0.42853015891000E+02 0.30195584253780E+00
 0.15584185766000E+02 0.66233609137875E+00
 s    2 1.00
 0.62067138508000E+01 0.65595308539952E+00
 0.25764896527000E+01 0.37585633285142E+00
 s    1 1.00
 0.57696339419000E+00 0.10000000000000E+01
 s    1 1.00
 0.22972831358000E+00 0.10000000000000E+01
 s    1 1.00
 0.95164440028000E-01 0.10000000000000E+01
 p    4 1.00
 0.34697232244000E+02 0.11327220003114E-01
 0.79582622826000E+01 0.76169659202087E-01
 0.23780826883000E+01 0.30192252202676E+00
 0.81433208183000E+00 0.72785027349547E+00
 p    1 1.00
 0.28887547253000E+00 0.10000000000000E+01
 p    1 1.00
 0.10056823671000E+00 0.10000000000000E+01
 d    1 1.00
 0.10970000000000E+01 0.10000000000000E+01
 d    1 1.00
 0.31800000000000E+00 0.10000000000000E+01
 f    1 1.00
 0.76100000000000E+00 0.10000000000000E+01
 
    5 0
 s    6 1.00
 0.13575349682000E+05 0.60645503603591E-03
 0.20352333680000E+04 0.46979088884982E-02
 0.46322562359000E+03 0.24332477647552E-01
 0.13120019598000E+03 0.97399968307759E-01
 0.42853015891000E+02 0.30195584253780E+00
 0.15584185766000E+02 0.66233609137875E+00
 s    2 1.00
 0.62067138508000E+01 0.65595308539952E+00
 0.25764896527000E+01 0.37585633285142E+00
 s    1 1.00
 0.57696339419000E+00 0.10000000000000E+01
 s    1 1.00
 0.22972831358000E+00 0.10000000000000E+01
 s    1 1.00
 0.95164440028000E-01 0.10000000000000E+01
 p    4 1.00
 0.34697232244000E+02 0.11327220003114E-01
 0.79582622826000E+01 0.76169659202087E-01
 0.23780826883000E+01 0.30192252202676E+00
 0.81433208183000E+00 0.72785027349547E+00
 p    1 1.00
 0.28887547253000E+00 0.10000000000000E+01
 p    1 1.00
 0.10056823671000E+00 0.10000000000000E+01
 d    1 1.00
 0.10970000000000E+01 0.10000000000000E+01
 d    1 1.00
 0.31800000000000E+00 0.10000000000000E+01
 f    1 1.00
 0.76100000000000E+00 0.10000000000000E+01
 
    6 0
 s    6 1.00
 0.19730800647000E+05 0.58626402628763E-03
 0.29578958745000E+04 0.45428820586397E-02
 0.67322133595000E+03 0.23558413450084E-01
 0.19068249494000E+03 0.94709193292923E-01
 0.62295441898000E+02 0.29719784913376E+00
 0.22654161182000E+02 0.66916246895232E+00
 s    2 1.00
 0.89791477428000E+01 0.64596683630063E+00
 0.36863002370000E+01 0.38700574393705E+00
 s    1 1.00
 0.84660076805000E+00 0.10000000000000E+01
 s    1 1.00
 0.33647133771000E+00 0.10000000000000E+01
 s    1 1.00
 0.13647653675000E+00 0.10000000000000E+01
 p    4 1.00
 0.49200380510000E+02 0.11448825101764E-01
 0.11346790537000E+02 0.78422337970864E-01
 0.34273972411000E+01 0.30818094738830E+00
 0.11785525134000E+01 0.72027196368413E+00
 p    1 1.00
 0.41642204972000E+00 0.10000000000000E+01
 p    1 1.00
 0.14260826011000E+00 0.10000000000000E+01
 d    1 1.00
 0.16540000000000E+01 0.10000000000000E+01
 d    1 1.00
 0.46900000000000E+00 0.10000000000000E+01
 f    1 1.00
 0.10930000000000E+01 0.10000000000000E+01
 
    7 0
 s    6 1.00
 0.19730800647000E+05 0.58626402628763E-03
 0.29578958745000E+04 0.45428820586397E-02
 0.67322133595000E+03 0.23558413450084E-01
 0.19068249494000E+03 0.94709193292923E-01
 0.62295441898000E+02 0.29719784913376E+00
 0.22654161182000E+02 0.66916246895232E+00
 s    2 1.00
 0.89791477428000E+01 0.64596683630063E+00
 0.36863002370000E+01 0.38700574393705E+00
 s    1 1.00
 0.84660076805000E+00 0.10000000000000E+01
 s    1 1.00
 0.33647133771000E+00 0.10000000000000E+01
 s    1 1.00
 0.13647653675000E+00 0.10000000000000E+01
 p    4 1.00
 0.49200380510000E+02 0.11448825101764E-01
 0.11346790537000E+02 0.78422337970864E-01
 0.34273972411000E+01 0.30818094738830E+00
 0.11785525134000E+01 0.72027196368413E+00
 p    1 1.00
 0.41642204972000E+00 0.10000000000000E+01
 p    1 1.00
 0.14260826011000E+00 0.10000000000000E+01
 d    1 1.00
 0.16540000000000E+01 0.10000000000000E+01
 d    1 1.00
 0.46900000000000E+00 0.10000000000000E+01
 f    1 1.00
 0.10930000000000E+01 0.10000000000000E+01
 
    8 0
 s    3 1.00
 0.34061341000000E+02 0.25439307208879E-01
 0.51235746000000E+01 0.19008594890375E+00
 0.11646626000000E+01 0.85244113011042E+00
 s    1 1.00
 0.32723041000000E+00 0.10000000000000E+01
 s    1 1.00
 0.10307241000000E+00 0.10000000000000E+01
 p    1 1.00
 0.80000000000000E+00 0.10000000000000E+01
 
    9 0
 s    3 1.00
 0.34061341000000E+02 0.25439307208879E-01
 0.51235746000000E+01 0.19008594890375E+00
 0.11646626000000E+01 0.85244113011042E+00
 s    1 1.00
 0.32723041000000E+00 0.10000000000000E+01
 s    1 1.00
 0.10307241000000E+00 0.10000000000000E+01
 p    1 1.00
 0.80000000000000E+00 0.10000000000000E+01
 
   10 0
 s    3 1.00
 0.34061341000000E+02 0.25439307208879E-01
 0.51235746000000E+01 0.19008594890375E+00
 0.11646626000000E+01 0.85244113011042E+00
 s    1 1.00
 0.32723041000000E+00 0.10000000000000E+01
 s    1 1.00
 0.10307241000000E+00 0.10000000000000E+01
 p    1 1.00
 0.80000000000000E+00 0.10000000000000E+01
 
   11 0
 s    3 1.00
 0.34061341000000E+02 0.25439307208879E-01
 0.51235746000000E+01 0.19008594890375E+00
 0.11646626000000E+01 0.85244113011042E+00
 s    1 1.00
 0.32723041000000E+00 0.10000000000000E+01
 s    1 1.00
 0.10307241000000E+00 0.10000000000000E+01
 p    1 1.00
 0.80000000000000E+00 0.10000000000000E+01
 
   12 0
 s    3 1.00
 0.34061341000000E+02 0.25439307208879E-01
 0.51235746000000E+01 0.19008594890375E+00
 0.11646626000000E+01 0.85244113011042E+00
 s    1 1.00
 0.32723041000000E+00 0.10000000000000E+01
 s    1 1.00
 0.10307241000000E+00 0.10000000000000E+01
 p    1 1.00
 0.80000000000000E+00 0.10000000000000E+01
 
   13 0
 s    3 1.00
 0.34061341000000E+02 0.25439307208879E-01
 0.51235746000000E+01 0.19008594890375E+00
 0.11646626000000E+01 0.85244113011042E+00
 s    1 1.00
 0.32723041000000E+00 0.10000000000000E+01
 s    1 1.00
 0.10307241000000E+00 0.10000000000000E+01
 p    1 1.00
 0.80000000000000E+00 0.10000000000000E+01
 
   14 0
 s    3 1.00
 0.34061341000000E+02 0.25439307208879E-01
 0.51235746000000E+01 0.19008594890375E+00
 0.11646626000000E+01 0.85244113011042E+00
 s    1 1.00
 0.32723041000000E+00 0.10000000000000E+01
 s    1 1.00
 0.10307241000000E+00 0.10000000000000E+01
 p    1 1.00
 0.80000000000000E+00 0.10000000000000E+01
 
   15 0
 s    3 1.00
 0.34061341000000E+02 0.25439307208879E-01
 0.51235746000000E+01 0.19008594890375E+00
 0.11646626000000E+01 0.85244113011042E+00
 s    1 1.00
 0.32723041000000E+00 0.10000000000000E+01
 s    1 1.00
 0.10307241000000E+00 0.10000000000000E+01
 p    1 1.00
 0.80000000000000E+00 0.10000000000000E+01
 
   16 0
 s    3 1.00
 0.34061341000000E+02 0.25439307208879E-01
 0.51235746000000E+01 0.19008594890375E+00
 0.11646626000000E+01 0.85244113011042E+00
 s    1 1.00
 0.32723041000000E+00 0.10000000000000E+01
 s    1 1.00
 0.10307241000000E+00 0.10000000000000E+01
 p    1 1.00
 0.80000000000000E+00 0.10000000000000E+01
 
   17 0
 s    3 1.00
 0.34061341000000E+02 0.25439307208879E-01
 0.51235746000000E+01 0.19008594890375E+00
 0.11646626000000E+01 0.85244113011042E+00
 s    1 1.00
 0.32723041000000E+00 0.10000000000000E+01
 s    1 1.00
 0.10307241000000E+00 0.10000000000000E+01
 p    1 1.00
 0.80000000000000E+00 0.10000000000000E+01
 
   18 0
 s    3 1.00
 0.34061341000000E+02 0.25439307208879E-01
 0.51235746000000E+01 0.19008594890375E+00
 0.11646626000000E+01 0.85244113011042E+00
 s    1 1.00
 0.32723041000000E+00 0.10000000000000E+01
 s    1 1.00
 0.10307241000000E+00 0.10000000000000E+01
 p    1 1.00
 0.80000000000000E+00 0.10000000000000E+01
 
   19 0
 s    3 1.00
 0.34061341000000E+02 0.25439307208879E-01
 0.51235746000000E+01 0.19008594890375E+00
 0.11646626000000E+01 0.85244113011042E+00
 s    1 1.00
 0.32723041000000E+00 0.10000000000000E+01
 s    1 1.00
 0.10307241000000E+00 0.10000000000000E+01
 p    1 1.00
 0.80000000000000E+00 0.10000000000000E+01
 
   20 0
 s    3 1.00
 0.34061341000000E+02 0.25439307208879E-01
 0.51235746000000E+01 0.19008594890375E+00
 0.11646626000000E+01 0.85244113011042E+00
 s    1 1.00
 0.32723041000000E+00 0.10000000000000E+01
 s    1 1.00
 0.10307241000000E+00 0.10000000000000E+01
 p    1 1.00
 0.80000000000000E+00 0.10000000000000E+01
 
[MO]
 Sym=     1a   
 Ene= -.14290758040835E+02
 Spin= Alpha
 Occup= 2.000000
     1 0.91081582154360E-06
     2 -.50064404333986E-05
     3 -.84808260238039E-04
     4 0.12834012212368E-02
     5 0.59881890373214E-02
     6 0.46793574041968E-04
     7 -.56987537559509E-04
     8 -.15117006795474E-04
     9 0.74233737957439E-04
    10 0.60640400216576E-03
    11 0.11433858897339E-03
    12 0.88420591753043E-03
    13 0.15984609595304E-02
    14 0.17907489432679E-03
    15 -.75747358470614E-05
    16 -.44865514991451E-06
    17 0.80233909969759E-05
    18 -.86094356200039E-05
    19 -.12864549486547E-04
    20 0.21247546209717E-04
    21 -.25772520323014E-03
    22 0.62998780887513E-04
    23 0.19472642234262E-03
    24 0.32395343852193E-03
    25 0.58138730081742E-03
    26 -.23727517728649E-03
    27 -.32055720698791E-04
    28 -.17555832776235E-04
    29 -.51435473560586E-04
    30 0.32833341070685E-04
    31 0.31214306056493E-04
    32 0.74009628751510E-04
    33 0.10173921259461E-04
    34 -.76606847629248E-05
    35 -.50016995496921E-05
    36 0.80594022491938E-05
    37 0.13336061959950E-04
    38 -.70718106027772E-04
    39 -.14294632760277E-02
    40 0.72598810975031E-02
    41 -.13610781067082E-01
    42 0.51311944436657E-04
    43 0.12281155064136E-03
    44 0.12903917604811E-03
    45 0.40144694353853E-02
    46 -.40916198348142E-02
    47 -.52430737631437E-02
    48 0.11569864936313E-02
    49 0.18032723926639E-03
    50 0.17885115162684E-02
    51 0.63673205613888E-04
    52 -.62526883243202E-04
    53 -.11463223706856E-05
    54 -.11421826921543E-03
    55 -.18337365059012E-03
    56 0.47815213384307E-04
    57 -.32696554135131E-03
    58 -.28999037183244E-03
    59 0.61695591318375E-03
    60 -.79791369166158E-03
    61 -.10032490624903E-02
    62 0.15788409982957E-02
    63 -.29850982657247E-05
    64 0.32837596402442E-04
    65 0.15290493222848E-04
    66 -.23344206972873E-04
    67 0.79535563452184E-05
    68 -.14883096997940E-04
    69 0.27349136557879E-04
    70 -.52009815009357E-04
    71 -.56312523555336E-05
    72 0.37781067609061E-04
    73 0.44836801309228E+00
    74 0.62658031746888E+00
    75 0.40590978722003E-01
    76 -.42604038701800E-01
    77 0.21522722970636E-01
    78 0.76540244218996E-03
    79 0.17395109056805E-02
    80 0.72995505138629E-03
    81 -.29528059437871E-02
    82 -.34261695688106E-02
    83 -.57246547097365E-02
    84 -.98511926494157E-04
    85 0.24786483443256E-02
    86 0.50891858125314E-03
    87 0.18536521075630E-03
    88 -.15998480153292E-03
    89 -.25380409223377E-04
    90 -.11602674998723E-03
    91 -.59960329904855E-04
    92 0.11476995220508E-04
    93 -.19595359108510E-02
    94 0.10720642003657E-02
    95 0.88747171048536E-03
    96 0.76006318033979E-03
    97 0.54823142842007E-03
    98 -.75283660326543E-03
    99 -.95995940009258E-04
   100 0.23011458024361E-04
   101 0.38786155022303E-04
   102 0.59430415382365E-04
   103 -.42214507493682E-04
   104 -.69924302448792E-04
   105 0.69361653072450E-04
   106 0.11341396851370E-04
   107 0.17887214919363E-04
   108 0.65055255776240E-04
   109 0.14773078295990E-04
   110 -.77636047488890E-04
   111 -.19024938369572E-02
   112 0.94108473642966E-02
   113 -.12787100891464E-01
   114 0.13819015313281E-03
   115 0.13408649389332E-04
   116 0.98639497227317E-04
   117 -.83844784192712E-02
   118 -.21200106009108E-03
   119 -.27725939100206E-02
   120 0.19864795460272E-02
   121 -.13732206070879E-02
   122 -.16790758762358E-03
   123 0.20533725721415E-03
   124 -.12393706965860E-03
   125 -.81400187555551E-04
   126 -.59983523452119E-05
   127 0.55054956958146E-04
   128 0.56354149481772E-05
   129 0.18713206261115E-02
   130 -.96713424738007E-03
   131 -.90418637873146E-03
   132 -.31957791666593E-03
   133 0.11650472079818E-02
   134 0.12481086183075E-03
   135 -.64390912320071E-04
   136 0.12464734696318E-04
   137 0.42335334510150E-04
   138 0.54134755271506E-04
   139 -.58125799141219E-06
   140 -.68688707073752E-04
   141 0.32254718977038E-04
   142 -.16141938470068E-04
   143 0.11889895584819E-04
   144 0.39524855487388E-06
   145 0.67414102558130E-05
   146 -.36564677896713E-04
   147 0.39908633019833E-03
   148 0.37027034039182E-03
   149 0.39275139092692E-02
   150 -.61026941776382E-04
   151 -.86011168225184E-05
   152 -.13381892777641E-04
   153 -.63713383740175E-03
   154 -.44118033218239E-03
   155 -.22886221024622E-03
   156 -.37548694657801E-03
   157 -.18756194492861E-02
   158 0.88940588788343E-03
   159 0.74300386025710E-04
   160 -.46347508486530E-04
   161 -.27952877539180E-04
   162 0.18701636679397E-04
   163 0.47751601385675E-04
   164 -.22669813096041E-06
   165 -.88658310955016E-03
   166 0.53289350518744E-03
   167 0.35368960436271E-03
   168 -.62039530416152E-04
   169 -.40210817700664E-03
   170 0.36140872148711E-04
   171 -.18934156977745E-05
   172 -.41701391998059E-04
   173 0.56700196903294E-05
   174 0.38068680431907E-05
   175 0.50113267364093E-04
   176 -.65491813068840E-05
   177 -.12665843172573E-05
   178 0.58350209943218E-05
   179 -.10579483699193E-05
   180 0.14985117788819E-04
   181 0.27669363370271E-03
   182 0.39478665555190E-03
   183 -.20430678526621E-03
   184 0.16075789438040E-02
   185 -.14852676366272E-02
   186 0.24206844830601E-04
   187 -.27101350064315E-04
   188 -.19684099297759E-04
   189 -.88219880884023E-03
   190 0.16704663383263E-03
   191 -.67201517552190E-04
   192 0.78585164676964E-03
   193 0.45400727894374E-03
   194 -.64080544338817E-04
   195 0.26645376025489E-04
   196 -.18254753052787E-04
   197 -.83906229727012E-05
   198 0.28779157800205E-04
   199 0.62140054723447E-05
   200 0.10646948800180E-04
   201 0.54979090930232E-04
   202 -.23247809901956E-04
   203 -.31731281028277E-04
   204 -.15939924816337E-03
   205 0.35167210304207E-04
   206 -.70489427836553E-04
   207 -.17634637738862E-05
   208 -.24984823151117E-05
   209 0.25921134991228E-06
   210 0.10628790504243E-05
   211 0.21942965864614E-05
   212 -.84233651855114E-06
   213 0.13030558741365E-05
   214 0.11577691918411E-05
   215 0.49456799918514E-06
   216 -.78148706328442E-06
   217 0.13462895419285E-02
   218 0.18373779606553E-02
   219 0.54156196275857E-03
   220 -.13434602448677E-02
   221 -.62998687270144E-03
   222 0.45881291685576E-04
   223 0.76709863759472E-05
   224 0.58153328470041E-04
   225 0.88788645611349E-04
   226 -.82664901033221E-04
   227 -.62186222739507E-03
   228 0.57314034285351E-03
   229 -.93705019184536E-04
   230 -.53904696039517E-03
   231 0.35796531720202E-04
   232 -.26168938427157E-04
   233 -.96275932930460E-05
   234 -.78400012377864E-05
   235 0.91806724439010E-06
   236 0.23867839990711E-07
   237 -.17485335532053E-03
   238 0.19701907684861E-03
   239 -.22165721528081E-04
   240 0.29883166881748E-05
   241 -.86030238744347E-04
   242 0.65016910115434E-04
   243 0.78881562646536E-05
   244 -.28739964706327E-06
   245 0.41469269088383E-06
   246 0.38660188103400E-05
   247 0.16025074141658E-05
   248 0.18645578608575E-05
   249 -.14449090985284E-04
   250 -.12169203256401E-05
   251 -.24209264888106E-05
   252 0.46235171725192E-05
   253 0.90156509646841E-05
   254 -.23304645761142E-03
   255 0.40292396117830E-03
   256 0.49120968332485E-04
   257 -.79759626356226E-04
   258 -.56458471589695E-04
   259 0.11945739946325E-03
   260 0.39279150599201E-04
   261 -.12238698054550E-02
   262 -.78635731912213E-04
   263 -.37008961406664E-04
   264 0.13328961675787E-04
   265 0.68474294033169E-04
   266 0.13279676465573E-02
   267 0.19634778893675E-02
   268 -.21093646621067E-03
   269 -.12610616760672E-03
   270 -.22537690695860E-04
   271 0.25825190718488E-04
   272 0.80645902306032E-03
   273 0.14808626185802E-02
   274 -.24609410544138E-03
   275 0.23898055395013E-04
   276 0.23467563208435E-04
   277 0.99677097383370E-04
   278 -.13199346374739E-02
   279 -.18997825755602E-02
   280 -.18475158211144E-04
   281 0.29299508381073E-03
   282 -.69442298318973E-03
   283 0.38798832209029E-04
   284 0.10617737213735E-02
   285 0.14670821437282E-02
   286 0.11967791681363E-03
   287 0.87282884969289E-04
   288 -.13535973461845E-04
   289 0.42818952308586E-04
   290 0.97493286404344E-05
   291 0.12435781685090E-02
   292 0.45432279653298E-03
   293 0.51436389201461E-04
   294 0.27245625318224E-04
   295 0.15265129932129E-04
   296 -.47257549017292E-03
   297 0.11127141099257E-02
   298 -.16110591085916E-03
   299 0.29046759438426E-04
   300 -.51789676486786E-04
   301 -.62315663563712E-04
   302 -.42759513470229E-03
   303 0.11630407702801E-03
   304 -.13603071982409E-03
   305 0.46955329147182E-05
   306 -.10527542789769E-04
   307 0.94436015624380E-05
   308 0.10513574391723E-03
   309 -.17949945789999E-03
   310 -.18959131801533E-04
   311 -.48009168414897E-04
   312 0.16298652487560E-05
   313 -.90427950677192E-05
   314 0.19108449506960E-03
   315 -.22897679745506E-03
   316 -.43037186552945E-04
   317 -.70170346450728E-05
   318 0.21272613833489E-04
   319 0.68390882298876E-05
   320 -.41450905239910E-03
   321 -.10665672982870E-03
   322 -.19577813001548E-04
   323 -.69749818181771E-04
   324 -.72676261605340E-04
   325 0.83142337955858E-04
   326 0.66672883756117E-03
   327 0.20778554500394E-04
   328 0.18362774057395E-03
   329 -.11757369666005E-05
   330 0.25041767187663E-04
 Sym=     2a   
 Ene= -.14290642063072E+02
 Spin= Alpha
 Occup= 2.000000
     1 0.58246452747032E-07
     2 -.17943568108143E-06
     3 -.39027601200116E-04
     4 0.36665948047768E-03
     5 -.44780620680427E-02
     6 0.86342243841783E-05
     7 0.24416055848918E-05
     8 0.42779010116240E-05
     9 0.80377898506014E-04
    10 0.12833296080726E-03
    11 -.44229445813152E-04
    12 -.11313200086188E-02
    13 -.29680732214811E-03
    14 0.16085837029245E-03
    15 0.35972552037935E-05
    16 -.21846910165523E-05
    17 -.14125641872413E-05
    18 0.16486781012800E-05
    19 0.34811629416329E-05
    20 -.11817314571647E-05
    21 0.80196407353226E-05
    22 -.25637592298569E-04
    23 0.17617951563247E-04
    24 0.52157842947438E-04
    25 -.48253760470070E-05
    26 0.21532492693892E-04
    27 0.72767763038856E-06
    28 -.13074509567788E-05
    29 -.15095750514438E-05
    30 0.21328871779940E-05
    31 0.39298278459673E-05
    32 0.19060777707344E-05
    33 -.31091691663469E-05
    34 -.21756983160047E-05
    35 0.11922968856533E-06
    36 0.14657283204812E-05
    37 -.40411648167100E-07
    38 0.20602963079050E-06
    39 0.15950003826940E-04
    40 -.16080004468844E-04
    41 0.29990845794047E-02
    42 -.39035842242009E-04
    43 0.10392310323590E-05
    44 0.75534103434188E-05
    45 0.34532806574478E-03
    46 -.35119510405967E-04
    47 0.11737360976216E-03
    48 -.24345560894652E-02
    49 0.35913597145360E-03
    50 -.87027780377442E-03
    51 0.95607225241592E-05
    52 -.58243871488738E-05
    53 -.37363353752854E-05
    54 -.20261067113882E-04
    55 0.12926431781240E-04
    56 0.28071940610432E-05
    57 -.99349306788540E-04
    58 0.24537421964360E-04
    59 0.74811884824180E-04
    60 0.11547649407007E-03
    61 -.13734524480977E-04
    62 -.59694510400116E-04
    63 -.38976963262074E-06
    64 -.11267693993551E-05
    65 -.47096095766948E-06
    66 -.25740808519304E-05
    67 0.52147879035642E-05
    68 0.40064505339595E-05
    69 0.30970116883934E-05
    70 -.37030681204094E-05
    71 -.33745901043011E-05
    72 -.88189662737942E-05
    73 -.27881494270365E-03
    74 -.38472616660879E-03
    75 -.10523173666861E-03
    76 0.12197002260198E-02
    77 -.47511793016755E-02
    78 0.12721318167296E-04
    79 0.48116743977286E-05
    80 -.17531424627172E-04
    81 0.21054337406192E-03
    82 -.31179048784716E-04
    83 0.33014742496140E-03
    84 -.17607489811773E-02
    85 -.11663598529823E-02
    86 -.14471992667223E-03
    87 0.24261581043248E-04
    88 -.13435914441554E-04
    89 -.10825666601694E-04
    90 0.17041070739325E-04
    91 0.28421627812254E-05
    92 0.26112964946563E-05
    93 -.72518629169407E-04
    94 0.56981047539023E-04
    95 0.15537581630385E-04
    96 -.55147059401646E-04
    97 -.25937962231822E-04
    98 0.44926449973126E-04
    99 -.64903821439773E-05
   100 0.72876840066854E-06
   101 0.61422750036393E-05
   102 0.59408321696244E-05
   103 0.48802292493108E-05
   104 -.73391978202758E-05
   105 0.27669292347059E-05
   106 -.58579746595600E-05
   107 -.90152884650534E-06
   108 0.70018461136137E-06
   109 0.55547736313332E-05
   110 -.31042749240096E-04
   111 0.26161977498972E-03
   112 0.15874392795165E-03
   113 0.12542694226470E-01
   114 0.11011673136423E-03
   115 0.58543729286575E-05
   116 0.32853323537093E-04
   117 -.63616028388136E-03
   118 -.61560930807724E-04
   119 -.22775819788520E-03
   120 -.39284888688735E-03
   121 0.44510604389709E-02
   122 0.90611831899473E-03
   123 0.37511822842248E-04
   124 -.35101178658008E-04
   125 -.24106441842407E-05
   126 -.15594119345432E-05
   127 0.45140375847276E-05
   128 0.20161777411061E-05
   129 -.59537448673797E-03
   130 0.32585067863819E-03
   131 0.26952380809978E-03
   132 -.27696382835656E-03
   133 -.14113288810251E-03
   134 -.20647781355191E-04
   135 -.19193659960565E-04
   136 0.46169563604700E-04
   137 0.99939852141634E-05
   138 0.69645463244022E-05
   139 -.56750545810621E-04
   140 -.88705753684265E-05
   141 0.18786450720901E-04
   142 -.51924238163452E-05
   143 -.45377628145717E-05
   144 -.55944495177459E-05
   145 0.96459343112968E-05
   146 -.50603813494887E-04
   147 -.18663503945501E-02
   148 0.91732363138173E-02
   149 -.22600744348542E-01
   150 -.10766539511462E-03
   151 0.92138068661703E-04
   152 -.69153783346568E-04
   153 0.70027402281668E-02
   154 -.13304905429656E-02
   155 0.22066263094337E-02
   156 -.19327379550185E-02
   157 0.27437265005305E-02
   158 -.19109853401211E-02
   159 0.19587868855615E-03
   160 -.12721981379819E-03
   161 -.68658874757957E-04
   162 0.45410670116808E-06
   163 0.55016154212373E-04
   164 -.69893384113564E-06
   165 0.15502498004399E-02
   166 -.57546309771542E-03
   167 -.97478670272446E-03
   168 -.73623004613183E-03
   169 0.77535071830455E-03
   170 -.18305457874967E-04
   171 0.71678136182570E-04
   172 -.68041333486541E-05
   173 -.20822156016528E-04
   174 -.42384840505527E-04
   175 -.31936791589826E-05
   176 0.26131688592103E-04
   177 -.53781470497301E-04
   178 0.12322381976321E-04
   179 0.18041651825350E-05
   180 -.12978162703270E-04
   181 0.44831845671772E+00
   182 0.62685107723363E+00
   183 0.37316808583276E-01
   184 -.31845452506700E-01
   185 0.21982457920003E-01
   186 -.90516282506877E-03
   187 0.87967292972264E-03
   188 -.15731455726520E-02
   189 0.63822693949666E-02
   190 -.85671009919429E-03
   191 0.22115490054966E-02
   192 -.20653925871952E-02
   193 0.95997651849552E-03
   194 -.17527539245692E-02
   195 0.95637878635479E-04
   196 -.16830648013071E-04
   197 -.78807230622409E-04
   198 0.28533719695771E-05
   199 0.84300938506172E-05
   200 0.67781362209741E-04
   201 -.12099411107312E-02
   202 0.69932179045563E-03
   203 0.51061932027553E-03
   204 0.24950832032286E-03
   205 -.58360816268700E-03
   206 0.12294358115491E-03
   207 0.45224617045631E-04
   208 0.32580253307178E-04
   209 -.31585525228982E-04
   210 -.22806103435824E-04
   211 -.21528702575295E-04
   212 0.53534040679138E-04
   213 -.37869087346432E-04
   214 -.22182294096113E-04
   215 -.11157611768916E-04
   216 0.17012299050220E-04
   217 0.16706483836215E-03
   218 0.22863909620505E-03
   219 0.53530915675062E-04
   220 -.14184871415478E-03
   221 0.63128904886267E-03
   222 0.78378012870912E-05
   223 0.91701714570854E-05
   224 0.58490555798612E-05
   225 -.33166539328643E-04
   226 -.36218599166332E-04
   227 -.53065447148546E-04
   228 -.36022106918277E-04
   229 0.21316018688006E-04
   230 0.21921707950449E-03
   231 0.31049001571674E-05
   232 -.14790780862161E-06
   233 -.29569923485458E-05
   234 0.29100302604164E-05
   235 0.47091745487648E-05
   236 0.85044989015735E-06
   237 -.13127218245683E-04
   238 0.48982204649637E-05
   239 0.82289977807197E-05
   240 -.10988162771316E-04
   241 -.27426226359803E-04
   242 0.83826060736631E-05
   243 0.11092707055369E-06
   244 -.61379810669605E-06
   245 0.33714622183673E-06
   246 0.89037814988549E-07
   247 0.31221231093787E-06
   248 0.10835163844863E-06
   249 -.23786209717033E-06
   250 0.51128426368195E-06
   251 -.56068076067912E-06
   252 0.40219899461602E-06
   253 -.18069566254142E-04
   254 0.23277424514120E-03
   255 0.34102713234762E-03
   256 0.22089436327445E-04
   257 0.20883621025145E-04
   258 -.54905151431549E-05
   259 -.92264155694794E-05
   260 0.61026984277454E-04
   261 0.18794485217537E-03
   262 -.18130687888646E-04
   263 -.69816194437401E-06
   264 -.15055893065461E-04
   265 -.42976629696223E-04
   266 0.11133365560822E-03
   267 -.10990439515732E-02
   268 -.66808784910589E-05
   269 -.61044573549392E-05
   270 0.13448571697634E-04
   271 -.45065576125982E-05
   272 -.15310001588158E-03
   273 0.27263255874114E-03
   274 0.23883278518850E-04