[Molden Format]
[Title]
                                                                                
[Atoms] AU
 pt    1   78 0.33214330173512E+00 -.26883353463629E+00 -.92400383531240E-01
 cl    2   17 0.43055949179664E+01 0.59045777349184E+00 -.13807342021053E+01
 cl    3   17 -.39921187805497E+01 0.72958323766640E-01 -.86534825206161E+00
 n     4    7 0.62669679906860E-01 0.37266189698059E+01 0.25208649600295E+00
 n     5    7 -.27316747415736E+00 -.36397358631244E+01 0.64320094263035E+00
 h     6    1 0.17880300824320E+01 0.46051842790145E+01 0.38633706041089E+00
 h     7    1 -.97530685549159E+00 0.41654516835411E+01 0.18320521842632E+01
 h     8    1 -.88582787653711E+00 0.44764093635743E+01 -.12688266176428E+01
 h     9    1 -.16578730605539E+01 -.46865726555690E+01 -.23268236530486E+00
 h    10    1 0.40768478674484E+00 -.44688011186287E+01 0.22645522026625E+01
[GTO]
    1 0
 s    2 1.00
 0.16559563000000E+02 -.14034868455505E+01
 0.13892440000000E+02 0.23840288101231E+01
 s    1 1.00
 0.58531044732000E+01 0.10000000000000E+01
 s    1 1.00
 0.12498640609000E+01 0.10000000000000E+01
 s    1 1.00
 0.55606439459000E+00 0.10000000000000E+01
 s    1 1.00
 0.13793093812000E+00 0.10000000000000E+01
 s    1 1.00
 0.48989034059000E-01 0.10000000000000E+01
 p    4 1.00
 0.81000000000000E+01 0.78920946119406E+00
 0.72000000000000E+01 -.10324576713086E+01
 0.15588402917000E+01 0.61812678606820E+00
 0.73230402180000E+00 0.53556358303210E+00
 p    1 1.00
 0.30270484669000E+00 0.10000000000000E+01
 p    1 1.00
 0.50000000000000E-01 0.10000000000000E+01
 d    4 1.00
 0.46299536825000E+01 -.96122201590061E-01
 0.21980241252000E+01 0.23170617382218E+00
 0.93629991261000E+00 0.50959439957295E+00
 0.37160028160000E+00 0.45040736945441E+00
 d    1 1.00
 0.13155928617000E+00 0.10000000000000E+01
 f    1 1.00
 0.66813000000000E+00 0.10000000000000E+01
 
    2 0
 s    5 1.00
 0.10449827566000E+05 0.54265953789407E-02
 0.15717365221000E+04 0.40626378128836E-01
 0.35712065523000E+03 0.18359747852877E+00
 0.10025185935000E+03 0.47438948768198E+00
 0.30812727554000E+02 0.43735181104122E+00
 s    3 1.00
 0.51923789434000E+02 -.92754154848099E-01
 0.57045760975000E+01 0.56380825544207E+00
 0.23508376809000E+01 0.50367044629712E+00
 s    1 1.00
 0.44605124672000E+00 0.10000000000000E+01
 s    1 1.00
 0.16848856190000E+00 0.10000000000000E+01
 p    5 1.00
 0.30766790569000E+03 -.88797025588865E-02
 0.72102015515000E+02 -.64284071721237E-01
 0.22532680262000E+02 -.24288739736006E+00
 0.78991765444000E+01 -.48340836369878E+00
 0.28767268321000E+01 -.38952563875509E+00
 p    1 1.00
 0.77459363955000E+00 0.10000000000000E+01
 p    1 1.00
 0.21037699698000E+00 0.10000000000000E+01
 d    1 1.00
 0.65000000000000E+00 0.10000000000000E+01
 
    3 0
 s    5 1.00
 0.10449827566000E+05 0.54265953789407E-02
 0.15717365221000E+04 0.40626378128836E-01
 0.35712065523000E+03 0.18359747852877E+00
 0.10025185935000E+03 0.47438948768198E+00
 0.30812727554000E+02 0.43735181104122E+00
 s    3 1.00
 0.51923789434000E+02 -.92754154848099E-01
 0.57045760975000E+01 0.56380825544207E+00
 0.23508376809000E+01 0.50367044629712E+00
 s    1 1.00
 0.44605124672000E+00 0.10000000000000E+01
 s    1 1.00
 0.16848856190000E+00 0.10000000000000E+01
 p    5 1.00
 0.30766790569000E+03 -.88797025588865E-02
 0.72102015515000E+02 -.64284071721237E-01
 0.22532680262000E+02 -.24288739736006E+00
 0.78991765444000E+01 -.48340836369878E+00
 0.28767268321000E+01 -.38952563875509E+00
 p    1 1.00
 0.77459363955000E+00 0.10000000000000E+01
 p    1 1.00
 0.21037699698000E+00 0.10000000000000E+01
 d    1 1.00
 0.65000000000000E+00 0.10000000000000E+01
 
    4 0
 s    5 1.00
 0.17128415853000E+04 -.54477995804909E-02
 0.25764812677000E+03 -.40627174632423E-01
 0.58458245853000E+02 -.18111962250584E+00
 0.16198367905000E+02 -.46843975563173E+00
 0.50052600809000E+01 -.44616846289231E+00
 s    1 1.00
 0.58731856571000E+00 0.10000000000000E+01
 s    1 1.00
 0.18764592253000E+00 0.10000000000000E+01
 p    3 1.00
 0.13571470233000E+02 -.58848116969522E-01
 0.29257372874000E+01 -.32024624762471E+00
 0.79927750754000E+00 -.75328226520436E+00
 p    1 1.00
 0.21954348034000E+00 0.10000000000000E+01
 d    1 1.00
 0.10000000000000E+01 0.10000000000000E+01
 
    5 0
 s    5 1.00
 0.17128415853000E+04 -.54477995804909E-02
 0.25764812677000E+03 -.40627174632423E-01
 0.58458245853000E+02 -.18111962250584E+00
 0.16198367905000E+02 -.46843975563173E+00
 0.50052600809000E+01 -.44616846289231E+00
 s    1 1.00
 0.58731856571000E+00 0.10000000000000E+01
 s    1 1.00
 0.18764592253000E+00 0.10000000000000E+01
 p    3 1.00
 0.13571470233000E+02 -.58848116969522E-01
 0.29257372874000E+01 -.32024624762471E+00
 0.79927750754000E+00 -.75328226520436E+00
 p    1 1.00
 0.21954348034000E+00 0.10000000000000E+01
 d    1 1.00
 0.10000000000000E+01 0.10000000000000E+01
 
    6 0
 s    3 1.00
 0.13010701000000E+02 0.33485484812989E-01
 0.19622572000000E+01 0.23472187088125E+00
 0.44453796000000E+00 0.81377028525955E+00
 s    1 1.00
 0.12194962000000E+00 0.10000000000000E+01
 p    1 1.00
 0.80000000000000E+00 0.10000000000000E+01
 
    7 0
 s    3 1.00
 0.13010701000000E+02 0.33485484812989E-01
 0.19622572000000E+01 0.23472187088125E+00
 0.44453796000000E+00 0.81377028525955E+00
 s    1 1.00
 0.12194962000000E+00 0.10000000000000E+01
 p    1 1.00
 0.80000000000000E+00 0.10000000000000E+01
 
    8 0
 s    3 1.00
 0.13010701000000E+02 0.33485484812989E-01
 0.19622572000000E+01 0.23472187088125E+00
 0.44453796000000E+00 0.81377028525955E+00
 s    1 1.00
 0.12194962000000E+00 0.10000000000000E+01
 p    1 1.00
 0.80000000000000E+00 0.10000000000000E+01
 
    9 0
 s    3 1.00
 0.13010701000000E+02 0.33485484812989E-01
 0.19622572000000E+01 0.23472187088125E+00
 0.44453796000000E+00 0.81377028525955E+00
 s    1 1.00
 0.12194962000000E+00 0.10000000000000E+01
 p    1 1.00
 0.80000000000000E+00 0.10000000000000E+01
 
   10 0
 s    3 1.00
 0.13010701000000E+02 0.33485484812989E-01
 0.19622572000000E+01 0.23472187088125E+00
 0.44453796000000E+00 0.81377028525955E+00
 s    1 1.00
 0.12194962000000E+00 0.10000000000000E+01
 p    1 1.00
 0.80000000000000E+00 0.10000000000000E+01
 
[MO]
 Sym=     1a   
 Ene= -.10169437652366E+03
 Spin= Alpha
 Occup= 2.000000
     1 -.31906995352449E-04
     2 0.67916835520228E-04
     3 -.26185905320014E-03
     4 0.72267456324920E-03
     5 -.93400367332317E-03
     6 -.24730291036834E-02
     7 0.17398428979570E-03
     8 -.45588994732209E-04
     9 -.78855399341922E-04
    10 -.66279866374176E-03
    11 0.14784602639483E-03
    12 0.25636647977394E-03
    13 -.19029410354915E-02
    14 -.10223015793112E-02
    15 0.58389219857389E-03
    16 -.13630370946036E-04
    17 0.20692689996195E-04
    18 -.70623190501590E-05
    19 -.19282360898170E-04
    20 0.23759323726124E-06
    21 0.87828156705386E-05
    22 -.57149271201070E-03
    23 0.67056026521987E-04
    24 0.50443668548872E-03
    25 -.22741353949565E-03
    26 0.37561739227584E-03
    27 0.57127787207409E-04
    28 -.86816299778046E-05
    29 0.96248406673933E-05
    30 -.66281473869318E-05
    31 0.10759384284934E-04
    32 -.13593102052963E-04
    33 0.18929425556044E-04
    34 0.88824458658911E-06
    35 0.68002325002495E-06
    36 -.10036832682803E-04
    37 0.52721969454408E-05
    38 0.99398755472050E+00
    39 0.22555710024856E-01
    40 -.11225982205882E-01
    41 0.91917909987186E-02
    42 0.12413201302588E-03
    43 0.17662909953603E-04
    44 -.44763008976038E-04
    45 0.49683416396632E-03
    46 0.76818278340008E-04
    47 -.17248982216340E-03
    48 -.16642417641081E-02
    49 -.26492832289265E-03
    50 0.58005375236675E-03
    51 0.10904706436251E-03
    52 -.58472544005929E-04
    53 -.50574520356582E-04
    54 0.36362195725857E-04
    55 -.74195762379626E-04
    56 -.15239685259160E-04
    57 -.45115939822316E-03
    58 -.34797652617598E-04
    59 0.87466913399187E-04
    60 0.10125384888170E-03
    61 -.84866911531603E-05
    62 -.18736895368990E-05
    63 -.23324905612335E-05
    64 -.53075465953943E-04
    65 -.60840148517666E-05
    66 -.23064984809624E-04
    67 0.34428565018549E-03
    68 -.26973235465909E-04
    69 0.18728591825593E-03
    70 0.17137561018150E-04
    71 -.15306496409742E-04
    72 -.18310646084088E-05
    73 -.20598048714557E-04
    74 0.54364833596063E-04
    75 -.11228409505116E-04
    76 0.10062886292025E-04
    77 0.54918939477376E-04
    78 0.49788996205230E-04
    79 -.42435258409997E-04
    80 0.16730395439959E-04
    81 0.20278444070311E-04
    82 -.37592892200229E-04
    83 -.23260987407959E-03
    84 0.25837801205923E-03
    85 0.30463346159499E-05
    86 -.69733597978525E-06
    87 -.23489986361646E-05
    88 -.14236387896361E-04
    89 -.26879497150039E-04
    90 0.18703084479434E-04
    91 -.13527728709906E-04
    92 -.21129203026487E-03
    93 0.80899987975582E-03
    94 0.49610493748583E-04
    95 0.14212346871636E-04
    96 -.46698237527729E-04
    97 0.35637485710726E-04
    98 0.25093789675229E-03
    99 -.29583071982095E-03
   100 0.84280250112347E-05
   101 0.10668505302897E-04
   102 -.19096530314131E-04
   103 0.67654566552436E-05
   104 0.50171394851516E-05
   105 -.49089234862946E-05
   106 0.81053076050651E-04
   107 0.34026825330830E-03
   108 -.21928518985999E-04
   109 0.46081527549542E-04
   110 0.20868167207364E-05
   111 -.13427708928141E-03
   112 0.93265026331950E-04
   113 -.38992825513336E-06
   114 0.16905583508890E-04
   115 0.38726974274811E-04
   116 0.53262808142812E-04
   117 0.58680827346296E-03
   118 0.11513165884594E-03
   119 -.49247575862418E-04
   120 -.25318722490549E-07
   121 -.33639131765166E-04
   122 -.43204636517528E-03
   123 -.38940353038318E-04
   124 -.51643864792984E-04
   125 0.20399656389262E-04
   126 -.22435213167658E-04
   127 0.35747134323545E-04
   128 -.92481735879971E-05
   129 -.33575792365826E-04
   130 -.18832189651975E-04
 Sym=     2a   
 Ene= -.10166638014584E+03
 Spin= Alpha
 Occup= 2.000000
     1 -.50253085279154E-05
     2 0.12757471416846E-04
     3 -.10298983505735E-03
     4 0.37237950227499E-03
     5 0.55127971082115E-04
     6 -.28634515412268E-02
     7 -.18358366614673E-03
     8 -.45993532168808E-05
     9 -.74496994382643E-04
    10 0.58766870170595E-03
    11 0.66561352158022E-05
    12 0.20939715498798E-03
    13 0.22373475854263E-02
    14 -.23722516725485E-03
    15 0.26087883838141E-03
    16 -.19149956330154E-04
    17 0.58780114656972E-04
    18 -.39630158326817E-04
    19 0.30514617030895E-05
    20 0.59223738736204E-05
    21 0.54129347720285E-05
    22 -.81369204286170E-03
    23 0.27289724901310E-03
    24 0.54079479384859E-03
    25 -.15814509005908E-04
    26 -.21189581713416E-03
    27 0.66220094753831E-04
    28 0.28727773139653E-04
    29 0.79851078756909E-05
    30 -.10359852744047E-04
    31 -.24122827907436E-04
    32 -.12736777415860E-04
    33 0.22701396629812E-04
    34 -.14419524242038E-04
    35 0.20236310052319E-05
    36 -.88021956462660E-05
    37 -.26073887954145E-05
    38 0.45702821319521E-03
    39 -.14662138408443E-04
    40 0.91172372419719E-04
    41 0.16888500416605E-03
    42 0.90392812963336E-05
    43 -.45099242617413E-05
    44 -.56640748781338E-05
    45 0.50063648199639E-04
    46 -.19794547043325E-04
    47 -.41377064668359E-04
    48 -.33177817769931E-03
    49 -.26818470122370E-04
    50 0.28859911869740E-03
    51 -.10761552298711E-04
    52 -.72284907405071E-05
    53 0.17990043039218E-04
    54 0.12768515783054E-04
    55 -.53319479901569E-04
    56 -.23168657336933E-04
    57 0.99398664314198E+00
    58 0.22564000001369E-01
    59 -.11262023138311E-01
    60 0.92221976977152E-02
    61 -.13512242436694E-03
    62 0.95574984632778E-05
    63 -.30486083193647E-04
    64 -.54111292467597E-03
    65 0.36503766865887E-04
    66 -.12294302617742E-03
    67 0.17546038880199E-02
    68 -.15286402456522E-03
    69 0.38677913163983E-03
    70 0.11633187996535E-03
    71 -.59544525086053E-04
    72 -.56787354879294E-04
    73 -.20453923458589E-04
    74 0.46564972202434E-04
    75 -.61069975077526E-05
    76 0.20968474484919E-04
    77 0.20221717362222E-03
    78 -.44738127877554E-03
    79 0.56212054851033E-04
    80 0.55267765515481E-04
    81 0.10791867609768E-04
    82 0.64236109887091E-03
    83 0.11114431577872E-03
    84 -.10069973130477E-03
    85 0.15784391819792E-04
    86 0.27155255959826E-04
    87 -.42939647779618E-04
    88 0.46100442054332E-04
    89 0.16966405529221E-04
    90 0.98546390544385E-05
    91 0.12452713109135E-04
    92 0.64144825866761E-04
    93 0.29854149303414E-04
    94 0.29761785697198E-04
    95 -.34077835896789E-04
    96 0.31837002176881E-04
    97 0.44431743383142E-04
    98 0.15678338779960E-04
    99 0.22526874651942E-03
   100 -.10818279691410E-04
   101 -.24553025541102E-05
   102 0.13273582245520E-04
   103 -.19319272724856E-04
   104 -.31576548246784E-05
   105 -.25581201876543E-04
   106 -.19413344245830E-03
   107 -.27380880995227E-03
   108 0.81790878689249E-04
   109 0.52104923405901E-04
   110 0.17287005840731E-04
   111 0.24872451837500E-03
   112 0.62386197306705E-03
   113 -.54761795378319E-04
   114 -.85250606881569E-04
   115 -.10994890841368E-03
   116 0.20691544147934E-03
   117 0.42197563299684E-03
   118 -.52811737928564E-04
   119 -.59715681732710E-04
   120 0.42034959644507E-04
   121 0.95231225255571E-04
   122 0.46546767410777E-03
   123 0.15293299823011E-04
   124 0.36837719175386E-04
   125 -.29751231847139E-04
   126 -.15926477222549E-03
   127 0.63106516312648E-04
   128 -.14687046692619E-04
   129 -.25190066814148E-04
   130 0.39684057056220E-04
 Sym=     3a   
 Ene= -.14608307692615E+02
 Spin= Alpha
 Occup= 2.000000
     1 -.23913931628688E-03
     2 0.55407311181414E-03
     3 -.16282499193943E-02
     4 0.29651872424562E-02
     5 -.69562836850255E-02
     6 -.35130759512605E-02
     7 0.14461436366755E-03
     8 0.17106361060596E-03
     9 0.71495485780812E-04
    10 0.55027669196763E-04
    11 0.18259660622466E-02
    12 -.68043791577471E-03
    13 0.28336602078509E-03
    14 0.29973796187455E-02
    15 -.65812433133381E-03
    16 -.11963268135226E-04
    17 0.56558033823249E-04
    18 -.44594765688022E-04
    19 0.12494741244344E-04
    20 0.29771479270205E-05
    21 -.37936416764064E-04
    22 0.95483770912785E-03
    23 -.22337024263845E-02
    24 0.12788647172567E-02
    25 -.36066910942283E-03
    26 0.26494355669033E-03
    27 0.40435476465759E-03
    28 0.37384856344421E-04
    29 -.24951612746919E-03
    30 -.78307768152132E-04
    31 -.83955150284575E-04
    32 0.16875286365057E-03
    33 -.19363254670403E-04
    34 0.33798102215460E-04
    35 0.16600814985160E-03
    36 0.12442415032308E-03
    37 0.33320967870330E-04
    38 -.71444993768923E-05
    39 0.68576293052619E-04
    40 -.65411964921530E-03
    41 0.12917933707728E-02
    42 0.17557109319392E-04
    43 0.27047423037010E-04
    44 -.88836426697828E-05
    45 0.14049254525752E-03
    46 0.15527527212216E-03
    47 -.64093402212305E-04
    48 -.73075967570609E-03
    49 -.27894561831384E-03
    50 0.27044207961946E-03
    51 0.87247298309653E-04
    52 -.12660098429974E-04
    53 -.74587199879679E-04
    54 -.14733957458398E-04
    55 -.58799629642637E-04
    56 -.20585593471003E-05
    57 0.77183843538805E-05
    58 -.67904349698054E-04
    59 0.28240213702858E-03
    60 -.13389547540316E-03
    61 0.53628922501704E-04
    62 -.29852486649443E-04
    63 0.16773931002133E-04
    64 0.28032460069033E-03
    65 -.16494921221130E-03
    66 0.83724703452237E-04
    67 -.48143254584979E-03
    68 0.20417904764808E-03
    69 -.57109442751675E-04
    70 0.17569448541537E-04
    71 -.34490717330488E-04
    72 0.16921268788952E-04
    73 0.91061270250312E-04
    74 -.19982854172038E-05
    75 0.36718687383043E-04
    76 0.17543060354766E-02
    77 -.10306332294070E-02
    78 0.43347011239572E-02
    79 0.33649628156196E-04
    80 -.21373427306615E-03
    81 -.61938595471664E-04
    82 0.54624566903882E-03
    83 -.19560721389586E-02
    84 -.92258206476922E-03
    85 -.16064006479626E-04
    86 0.52758260808095E-04
    87 -.36694254328470E-04
    88 -.14850561972879E-04
    89 0.25086579341859E-04
    90 0.61975951896706E-05
    91 0.98847220901409E+00
    92 -.44318465212464E-01
    93 0.24029490577008E-01
    94 -.74010818006267E-03
    95 -.12714215344008E-02
    96 0.74895176725917E-03
    97 0.12016394462385E-02
    98 0.50670197604689E-02
    99 -.16522664033887E-02
   100 0.80416310774113E-04
   101 0.26005526412527E-03
   102 -.34047157489939E-03
   103 -.41067900473050E-03
   104 -.10384646471168E-02
   105 0.22465348134438E-03
   106 -.24220386471533E-03
   107 -.59469723340693E-03
   108 -.12438132909430E-04
   109 0.17874748595764E-03
   110 0.11581721240758E-03
   111 0.66303071246551E-05
   112 0.13930836033914E-03
   113 0.56362756580504E-04
   114 0.15444405039258E-03
   115 -.73382490144871E-04
   116 -.32561052485240E-03
   117 -.60658220337678E-03
   118 -.97899758098762E-04
   119 0.17934622658095E-03
   120 0.31511571652348E-04
   121 0.33065396466827E-02
   122 -.13544054872661E-02
   123 0.27639680291879E-02
   124 0.16270723981399E-02
   125 0.20398254809312E-02
   126 0.34693070588027E-02
   127 -.13695249051770E-02
   128 -.16011895544428E-02
   129 0.11751389526667E-02
   130 -.32883936524836E-02
 Sym=     4a   
 Ene= -.14596873886503E+02
 Spin= Alpha
 Occup= 2.000000
     1 -.13886208828084E-03
     2 0.33003850552275E-03
     3 -.12993530514529E-02
     4 0.31987940923404E-02
     5 -.67201455387541E-02
     6 -.26306470211482E-02
     7 -.13615649415081E-03
     8 0.19295582963799E-03
     9 0.33343308482676E-03
    10 0.53706981324382E-03
    11 -.10894487784383E-02
    12 -.10077752598262E-02
    13 0.49407807396466E-04
    14 -.14601404063028E-02
    15 -.70594613374856E-03
    16 0.87407262656088E-04
    17 -.21053051872538E-03
    18 0.12312325606929E-03
    19 0.26650600419516E-04
    20 0.14834625174686E-04
    21 -.78367849315045E-05
    22 0.24961899327039E-02
    23 -.38998349811482E-02
    24 0.14036450484442E-02
    25 -.27257579716140E-03
    26 -.11634183621252E-05
    27 0.12818503099125E-03
    28 -.31440386117174E-04
    29 0.24320030516288E-04
    30 0.36271000626520E-04
    31 0.41012328330045E-04
    32 -.64333168606241E-05
    33 -.17148327184707E-04
    34 0.11693760280605E-05
    35 -.26195428008949E-04
    36 -.31514326622994E-04
    37 -.42193260447213E-05
    38 0.73997645459506E-05
    39 -.66267975365738E-04
    40 0.37291187887899E-03
    41 -.10908158542967E-02
    42 -.53727462032936E-04
    43 0.20164391655300E-04
    44 0.22347671005673E-04
    45 -.28355756668513E-03
    46 0.79343419363927E-04
    47 0.12313766277827E-03
    48 0.75212644992207E-03
    49 0.49309724834591E-03
    50 -.36772243958011E-03
    51 0.16528735841923E-04
    52 0.67138963950489E-06
    53 -.17200125481428E-04
    54 -.45682229271667E-04
    55 0.30941564285366E-04
    56 0.16622909736894E-04
    57 0.12668966566720E-04
    58 -.11352911993769E-03
    59 0.70736244344903E-03
    60 -.17921955176556E-02
    61 0.70582701259625E-04
    62 0.30492246190728E-04
    63 0.23404332614069E-04
    64 0.38663181341528E-03
    65 0.15593517039504E-03
    66 0.13088007048013E-03
    67 -.12844919058707E-02
    68 -.69252799754145E-04
    69 -.37701842007012E-03
    70 -.35653312315386E-04
    71 0.24245406627392E-04
    72 0.11407905687995E-04
    73 -.37354790595977E-04
    74 -.46954318275606E-04
    75 -.17992231733518E-04
    76 0.98818146906819E+00
    77 -.46368612224956E-01
    78 0.24980954880107E-01
    79 -.19880449018709E-03
    80 0.16388378254488E-02
    81 0.12508526223286E-03
    82 0.94736846584149E-03
    83 -.55078454968409E-02
    84 -.10906025697733E-02
    85 -.48579872099206E-03
    86 0.92192658328384E-03
    87 -.43612786229178E-03
    88 -.17066546297960E-03
    89 0.66058245544613E-05
    90 0.14089968663173E-03
    91 -.18718880572736E-02
    92 -.76644868030263E-03
    93 0.59036865939033E-02
    94 0.80607137070366E-04
    95 0.13756327276976E-03
    96 -.13249508157317E-03
    97 0.90219358111952E-03
    98 0.24940351144722E-02
    99 -.15522423381895E-02
   100 -.21183065422261E-04
   101 0.38104076390284E-04
   102 -.16921010968024E-04
   103 0.71542126729618E-04
   104 0.26885718571102E-05
   105 -.25404445912486E-04
   106 0.27510739268032E-02
   107 -.18432461109721E-02
   108 -.34035033034087E-02
   109 -.11528815821002E-02
   110 -.12021691663512E-03
   111 0.30748889615789E-02
   112 -.17328039915616E-02
   113 0.19983081527568E-02
   114 -.23630125784940E-03
   115 -.30497679880487E-02
   116 0.26738485334798E-02
   117 -.17932886080723E-02
   118 0.16879273931511E-02
   119 -.88434279141222E-03
   120 0.30202744300426E-02
   121 -.13189138389639E-03
   122 0.24391249108243E-04
   123 -.49788698378971E-04
   124 -.13255361395741E-03
   125 0.16130004269039E-03
   126 0.19781787871556E-03
   127 0.32616196119321E-03
   128 -.16681463884918E-03
   129 -.65923155992219E-04
   130 -.23654463867931E-04
 Sym=     5a   
 Ene= -.96464273073935E+01
 Spin= Alpha
 Occup= 2.000000
     1 0.18975836251268E-04
     2 -.45765765038702E-04
     3 0.24328475796996E-03
     4 -.98465685539667E-03
     5 0.13087031019908E-02
     6 0.67460644513178E-02
     7 -.20885218367480E-03
     8 0.14179586526066E-03
     9 0.11628235224948E-03
    10 0.13546574204646E-02
    11 -.36012341931530E-03
    12 -.54197513276521E-03
    13 0.53272376861715E-02
    14 0.28258871336051E-02
    15 -.15841047571905E-02
    16 -.10958628142245E-05
    17 -.48058766984820E-04
    18 0.49154629799045E-04
    19 0.40156858537285E-04
    20 0.34987826336575E-04
    21 -.14498981958455E-04
    22 0.12877392432204E-02
    23 -.12946622061937E-03
    24 -.11582730226011E-02
    25 0.42736290232654E-03
    26 -.89377873623077E-03
    27 -.96607758264104E-04
    28 -.18493891392611E-04
    29 -.42344235208137E-05
    30 -.94221504361660E-05
    31 0.84940810766163E-05
    32 0.15345094487014E-05
    33 0.31167642342017E-05
    34 0.16318077916810E-04
    35 0.41465658541366E-05
    36 0.95243770874962E-05
    37 0.59910973526764E-06
    38 -.31166576397050E+00
    39 0.10204374884518E+01
    40 0.53870440721138E-01
    41 -.28037848928823E-01
    42 0.41471630019212E-02
    43 0.53768724343407E-03
    44 -.16165407873626E-02
    45 -.16176895249432E-02
    46 -.24167883781567E-03
    47 0.56460988160304E-03
    48 0.39828862981447E-02
    49 0.64373838027841E-03
    50 -.13763742617674E-02
    51 -.47435885470083E-04
    52 0.24943524987042E-04
    53 0.22492360483041E-04
    54 -.59111203289560E-04
    55 0.81086278905958E-04
    56 -.25233524011582E-04
    57 0.12142615156289E-03
    58 -.35535967135551E-03
    59 -.32458373023815E-03
    60 0.92411775256574E-04
    61 0.21096877675239E-04
    62 0.60638318948580E-05
    63 0.20755086849567E-05
    64 0.13360932185190E-03
    65 0.33227533254776E-04
    66 0.30708492782028E-04
    67 -.78279231372028E-03
    68 -.30241762705722E-04
    69 -.36299113228760E-03
    70 -.39767995468070E-04
    71 0.33736128676406E-04
    72 0.60318667916637E-05
    73 0.35720110708596E-04
    74 -.11844433973112E-03
    75 0.21829560109266E-04
    76 -.28124471540762E-04
    77 -.18803926802570E-03
    78 0.78820382094824E-05
    79 0.11018145349388E-03
    80 -.41631161021875E-04
    81 -.65103962805244E-04
    82 0.15929973582370E-03
    83 0.52903850438792E-03
    84 -.71671278550216E-03
    85 -.70009578513431E-05
    86 0.43191239046799E-05
    87 0.26818339466632E-05
    88 0.18701926584700E-04
    89 0.55668440136938E-04
    90 -.36203143075372E-04
    91 0.30681729305682E-04
    92 0.44080687800296E-03
    93 -.16984976222721E-02
    94 -.12800777878529E-03
    95 -.13909658420418E-04
    96 0.11833040851069E-03
    97 -.18783829993290E-03
    98 -.40716838466575E-03
    99 0.75905196823364E-03
   100 -.22491555214038E-04
   101 -.14604326178128E-04
   102 0.37095881392166E-04
   103 -.16098184239513E-04
   104 -.63525216546625E-05
   105 0.58383196157540E-05
   106 -.20544710443386E-03
   107 -.90438809914729E-03
   108 0.67480598746662E-04
   109 -.13245005681345E-03
   110 -.98003631307500E-05
   111 0.33366826570982E-03
   112 -.28479865616878E-03
   113 -.13223073571271E-04
   114 -.23636217016991E-04
   115 -.91074679549482E-04
   116 -.15245228354999E-03
   117 -.15854591047135E-02
   118 -.28259950641604E-03
   119 0.13420407639841E-03
   120 0.11171766918747E-04
   121 0.48336477838377E-04
   122 0.12025785567738E-02
   123 0.97404401101833E-04
   124 0.10946554197586E-03
   125 -.46499924284608E-04
   126 0.41611330294849E-04
   127 -.12830869533456E-03
   128 0.21695646444523E-04
   129 0.42597740854358E-04
   130 0.40053057656416E-04
 Sym=     6a   
 Ene= -.96179866336441E+01
 Spin= Alpha
 Occup= 2.000000
     1 -.28522232100147E-04
     2 0.68944340378389E-04
     3 -.16122566830919E-03
     4 -.13739998604209E-03
     5 -.11088064085806E-02
     6 0.78796356938356E-02
     7 0.22608877828407E-03
     8 0.19961182651732E-04
     9 0.13263910983842E-03
    10 -.11786657684144E-02
    11 0.85724476405686E-05
    12 -.46031819124774E-03
    13 -.62209148808434E-02
    14 0.59737245937024E-03
    15 -.65816488388361E-03
    16 0.29027273899548E-04
    17 -.15498991104724E-03
    18 0.12596263714769E-03
    19 -.26097240929406E-05
    20 -.30944469546000E-04
    21 -.36298705846206E-05
    22 0.18424772067894E-02
    23 -.55933305438736E-03
    24 -.12831441524021E-02
    25 -.92896182949576E-05
    26 0.56513457053399E-03
    27 -.16028394930435E-03
    28 -.24053001498573E-04
    29 -.11223812509229E-04
    30 0.88368421218182E-05
    31 0.27854043006918E-04
    32 0.17088276655108E-04
    33 -.23913051950186E-04
    34 0.44164448413099E-05
    35 -.20299520126991E-05
    36 0.12057184135694E-04
    37 0.27186283206298E-05
    38 -.13926665550225E-03
    39 0.50229684005465E-03
    40 -.34785663147230E-03
    41 0.39104993303450E-04
    42 -.16657487526999E-04
    43 0.11744860511660E-04
    44 0.70883085534374E-05
    45 -.11846293823370E-03
    46 0.61397633533010E-04
    47 0.72070315508962E-04
    48 0.71106776532175E-03
    49 -.45445824831901E-05
    50 -.59609072128865E-03
    51 0.27700523589696E-04
    52 0.13036239584284E-04
    53 -.40736763173980E-04
    54 -.24644558127589E-04
    55 0.11756722590805E-03
    56 0.50525612395374E-04
    57 -.31166399638016E+00
    58 0.10204242760883E+01
    59 0.53965617698631E-01
    60 -.28211929331454E-01
    61 -.45477344694807E-02
    62 0.38518577596068E-03
    63 -.96912456549716E-03
    64 0.17766059430004E-02
    65 -.11066367501518E-03
    66 0.39096806842082E-03
    67 -.42999701015647E-02
    68 0.34898484117802E-03
    69 -.92075514654353E-03
    70 -.33926606332320E-04
    71 0.17171992902649E-04
    72 0.16754613429672E-04
    73 0.23063956176570E-05
    74 -.18358785750333E-04
    75 0.32884431273356E-05
    76 -.57622027117209E-04
    77 -.54226912855299E-03
    78 0.11272767577589E-02
    79 -.16347435124160E-03
    80 -.13880926424019E-03
    81 -.22670955919527E-04
    82 -.16320100651217E-02
    83 -.31518218997569E-03
    84 0.27069833671471E-03
    85 -.33912833951865E-04
    86 -.52536572149380E-04
    87 0.86449406101244E-04
    88 -.89959234374557E-04
    89 -.37572049257809E-04
    90 -.17491902391469E-04
    91 -.33660506386695E-04
    92 -.21819624000979E-03
    93 0.62354027523599E-04
    94 -.77502505125630E-04
    95 0.86825231668353E-04
    96 -.87200322853449E-04
    97 -.15487514683101E-03
    98 0.90929670526914E-04
    99 -.55180038528795E-03
   100 0.21486442395485E-04
   101 0.14406702483243E-04
   102 -.35893144878729E-04
   103 0.28592875920399E-04
   104 0.13913940637457E-04
   105 0.45397036759502E-04
   106 0.46153984049060E-03
   107 0.72151539933586E-03
   108 -.18167390101228E-03
   109 -.11725479144024E-03
   110 -.40570994300659E-04
   111 -.61856433912358E-03
   112 -.16839949810736E-02
   113 0.12410296475645E-03
   114 0.21024776908431E-03
   115 0.24549200330710E-03
   116 -.50600458342118E-03
   117 -.10939040187391E-02
   118 0.11968735902593E-03
   119 0.13309236416928E-03
   120 -.84311086270693E-04
   121 -.22264090993046E-03
   122 -.12491645904469E-02
   123 -.34262072097256E-04
   124 -.76870887636565E-04
   125 0.75915060856961E-04
   126 0.36666495821099E-03
   127 -.24824531937520E-03
   128 0.46924840447942E-04
   129 0.22775294396848E-04
   130 -.90654841591939E-04
 Sym=     7a   
 Ene= -.74142711074982E+01
 Spin= Alpha
 Occup= 2.000000
     1 0.32858494364362E-05
     2 -.71763536193309E-05
     3 0.73106323129818E-04
     4 -.72906807299354E-03
     5 0.27006342997751E-02
     6 0.15696278214436E-02
     7 -.13500494879108E-03
     8 0.13904427846882E-03
     9 0.85383683005654E-04
    10 0.14865255050710E-02
    11 -.23338637861198E-03
    12 -.55831951629659E-03
    13 0.44965484183947E-03
    14 0.29342941286045E-03
    15 -.55152402846271E-03
    16 0.13764066112900E-03
    17 -.78721925590346E-04
    18 -.58918735538658E-04
    19 0.97982058695891E-04
    20 -.99165857660414E-04
    21 -.34407039023932E-04
    22 0.62261601316607E-03
    23 -.25844809999598E-03
    24 -.36416791317008E-03
    25 0.88257758797033E-04
    26 -.24724761647678E-03
    27 -.12486785901884E-03
    28 -.43792372829671E-04
    29 -.10095991165731E-04
    30 -.19964122581185E-04
    31 0.20694621727110E-04
    32 -.48282019462852E-06
    33 0.21551737665481E-04
    34 0.38059011798785E-04
    35 0.14028013722716E-04
    36 0.52329434561198E-05
    37 0.66126329083478E-05
    38 0.15282117692863E-02
    39 -.54560183105086E-02
    40 0.25747652370076E-02
    41 -.44443070933940E-02
    42 0.96424710430539E+00
    43 0.39801585629807E-01
    44 -.17413542354591E+00
    45 -.50773682555839E-01
    46 -.21537078352627E-02
    47 0.92702759084764E-02
    48 0.96102862736853E-02
    49 0.64170575697944E-03
    50 -.20435948996606E-02
    51 0.10688745937013E-04
    52 -.14631900674212E-04